<?xml version="1.0"?>
<VTKFile type="UnstructuredGrid" version="0.1" byte_order="LittleEndian">
   <UnstructuredGrid>
      <Piece NumberOfPoints="252" NumberOfCells="0"> 
         <Points> 
            <DataArray type="Float32" Name="Position" NumberOfComponents="3" format="ascii"> 
               -3.425  -0.855454  2.2574  
               1.63684  -0.848154  -0.458954  
               -1.75672  0.682006  0.807596  
               0.911641  -0.828054  3.0407  
               -3.33802  0.263706  1.3869  
               2.93184  1.44701  1.7938  
               -1.79623  0.715706  1.215  
               2.42164  1.45471  0.904796  
               -0.204659  0.658506  3.6278  
               -2.16058  -0.044274  3.332  
               -1.96264  -1.12646  3.0265  
               0.009941  1.06171  2.9213  
               0.252541  0.849906  0.570996  
               -1.67522  -1.33696  2.4541  
               -1.00807  -1.30591  1.8041  
               -2.53005  0.495106  2.1338  
               3.32794  -0.212814  1.1734  
               -1.9607  -1.39287  1.4923  
               -3.52132  -0.083864  1.8332  
               -0.360359  -0.889074  3.5349  
               3.46874  -0.190594  0.697996  
               -2.03605  0.250906  3.1818  
               -1.5212  0.796606  2.3291  
               1.36414  -0.949124  1.7578  
               -3.09881  -1.38256  1.6719  
               3.38024  0.552906  2.2561  
               -3.54771  -0.450094  2.1149  
               -2.33659  0.629806  1.0221  
               0.848541  1.22461  2.0761  
               1.31424  1.28771  2.78  
               3.23234  0.051706  2.1149  
               0.541141  -0.869594  3.2558  
               2.12854  -0.497124  2.6529  
               -0.200059  -1.0535  3.209  
               3.79654  1.26961  1.179  
               0.764641  -0.181114  3.7865  
               3.61464  0.458406  1.8075  
               0.174741  -1.14978  2.1319  
               1.63444  -0.617364  2.9422  
               1.82794  -0.867034  1.0177  
               3.86784  0.122106  0.346746  
               0.176841  1.02751  1.6812  
               2.22504  1.17571  2.8452  
               -2.05103  0.619206  2.4803  
               -3.1251  -0.430314  2.6633  
               -0.736519  -1.24703  1.4234  
               1.83234  -0.803304  1.9916  
               -0.771749  0.856406  1.5524  
               4.01314  1.27361  0.476596  
               -2.1457  0.432206  2.8387  
               1.99094  0.889406  3.3019  
               3.11404  -0.382604  -0.930404  
               0.668341  -0.484874  3.6608  
               2.52874  1.35251  2.3307  
               3.05694  -0.458614  -0.045094  
               -3.82375  -0.821974  1.6509  
               1.82644  0.404306  3.5189  
               3.80694  1.40261  -0.673144  
               -0.175859  -1.17754  1.4186  
               2.31824  -0.226994  2.9506  
               0.988841  -0.551814  3.4776  
               3.80014  0.181506  0.958096  
               -1.20043  0.745406  1.0817  
               2.47754  1.43431  0.434786  
               -3.15  -0.062234  2.4078  
               -0.400659  -1.24141  1.9035  
               1.40064  -0.174024  3.5975  
               -1.63061  0.521006  3.1152  
               1.30854  -0.967644  1.2774  
               3.81844  0.036916  -0.292334  
               -0.993219  -0.522244  3.7807  
               2.44704  1.39681  -0.113854  
               -0.112359  -1.08787  0.573196  
               1.37784  1.27231  1.6354  
               1.25494  0.151606  3.714  
               0.403441  1.16581  2.5154  
               1.23064  -0.844674  2.6785  
               2.70614  1.02691  2.8036  
               -1.53113  0.802406  1.9419  
               1.91924  1.29191  0.708896  
               -1.09713  -1.2206  1.0325  
               2.13304  1.31831  -0.575044  
               -1.04604  0.694406  3.1918  
               1.98794  -0.788144  -0.140574  
               1.73804  -0.756064  2.4354  
               -0.069359  0.820406  0.927096  
               -0.635559  0.800206  1.1272  
               2.93114  0.143506  2.624  
               3.36654  -0.280934  -0.452624  
               -1.41051  -1.30551  1.426  
               0.167541  1.10241  2.1055  
               -1.48005  -1.3673  2.0125  
               -1.17728  -1.30615  2.6689  
               -0.553259  -1.22172  2.8222  
               1.62124  1.16521  -0.259554  
               -2.63008  -0.422604  3.088  
               3.19684  -0.183384  1.6611  
               -0.283959  -1.21672  2.425  
               0.830641  -1.0407  1.5208  
               0.576841  -1.0239  0.578496  
               -0.730489  0.730806  0.734796  
               0.769941  0.229206  3.8363  
               4.10074  1.18221  -0.238214  
               2.08924  0.092906  3.3371  
               0.140141  -1.08462  2.9348  
               0.851241  0.607406  3.7121  
               -0.203359  0.903606  1.3867  
               1.61494  1.17341  0.307636  
               1.39264  0.580206  3.6268  
               0.253041  -1.10969  2.5066  
               0.181941  0.250406  3.9055  
               0.781841  -1.04365  1.9337  
               -3.53181  -1.19528  1.7051  
               0.260041  -0.803284  3.487  
               -3.86117  -0.444074  1.49  
               2.30024  -0.574664  2.2191  
               0.152141  -1.0998  0.946196  
               3.14574  -0.413984  0.443116  
               3.50744  -0.195284  0.108416  
               0.712741  1.14091  1.6518  
               2.83254  -0.493464  1.4428  
               -1.84107  0.723306  1.6461  
               -0.459359  1.01641  2.226  
               0.201841  -1.01767  0.189156  
               2.69714  1.50151  1.323  
               -1.63185  -0.014764  3.5926  
               4.06124  0.948106  0.957796  
               2.99564  1.23671  2.26  
               2.36224  -0.658334  1.7346  
               -1.56114  -1.23049  2.9694  
               1.55424  1.24091  1.1165  
               0.626741  0.939306  0.855396  
               -2.03633  -0.890544  3.2913  
               1.22894  -0.958444  0.811796  
               2.03724  1.39531  1.3429  
               -2.14393  -1.2951  2.5406  
               -1.30239  -1.20062  0.643196  
               1.44924  -0.890044  0.039516  
               -0.215759  0.355906  3.8424  
               -0.920159  -1.12464  3.252  
               0.225241  -1.13729  1.7495  
               -1.304  0.689606  0.573696  
               2.38734  -0.695494  1.2077  
               3.61604  -0.063804  -0.868164  
               1.27524  -0.915394  2.2043  
               -2.12661  0.680406  1.9855  
               0.956941  1.08311  3.28  
               3.42554  1.29201  1.7499  
               1.14354  1.02601  0.066126  
               2.67424  -0.622824  0.391136  
               2.10214  -0.780244  0.270976  
               2.37824  1.45531  1.8445  
               -1.40993  -0.961854  3.4543  
               4.01324  0.332406  -0.723214  
               3.36614  1.54681  0.229086  
               3.01434  1.50851  -0.892014  
               -2.63648  -1.35115  2.159  
               0.762741  -1.0125  2.3731  
               2.96804  0.646406  2.7332  
               3.78294  1.45601  -0.006234  
               0.293941  0.980106  3.3221  
               0.743841  0.927906  0.369276  
               0.353641  -1.10606  1.3429  
               0.785441  -0.965424  0.039136  
               -2.44674  -0.783074  3.1106  
               -1.76189  -1.29973  0.946196  
               0.640841  -0.980814  2.7631  
               3.91144  0.552606  1.2802  
               3.35354  1.54841  -0.400284  
               -0.360759  0.853606  3.2537  
               1.95314  1.36711  2.4547  
               0.992941  1.10351  1.1961  
               -2.66574  0.304606  2.49  
               -0.427759  -1.08172  0.236916  
               3.75944  0.923206  1.7074  
               2.99384  1.55211  0.718696  
               2.29644  -0.743554  0.741996  
               3.41724  1.48031  -1.07079  
               1.43164  1.32691  2.2069  
               -2.09688  -1.40197  2.0063  
               -3.09577  -1.18768  2.2491  
               -0.768859  0.565106  3.5068  
               4.01284  0.625006  -1.18782  
               2.74034  1.46731  -0.486764  
               -2.85619  0.495806  1.1936  
               -0.925189  0.930706  2.5073  
               4.20724  0.885506  0.224376  
               -0.837619  0.695306  0.283396  
               -2.54855  -1.42436  1.5891  
               1.13134  -0.948084  0.398946  
               0.653841  1.17101  2.9536  
               0.943541  1.25031  2.523  
               2.05184  1.29831  0.066136  
               0.290641  -0.136404  3.8742  
               2.58184  0.234906  2.9993  
               2.80834  -0.374994  1.9726  
               -2.55732  -1.12034  2.7575  
               -0.594659  -0.048564  3.9113  
               2.67954  -0.253214  2.4704  
               4.18094  0.748706  -0.471614  
               2.53554  -0.659604  -0.082264  
               -3.08951  0.229006  1.9825  
               1.88274  -0.848684  1.4945  
               -0.985279  0.894306  2.0085  
               4.08704  0.536406  0.624496  
               0.371741  0.972006  1.2502  
               -0.719569  -1.13703  0.634596  
               -0.279059  0.747106  0.458496  
               4.12564  0.432706  -0.049424  
               -2.65011  0.030536  2.9227  
               1.68854  -0.870954  0.546196  
               -2.97461  -0.856614  2.7343  
               2.26844  -0.709414  -0.535614  
               -0.452859  -1.15841  1.0136  
               -1.45016  0.338706  3.47  
               -2.01337  -0.428744  3.4855  
               0.186241  0.812206  0.140706  
               3.29734  0.979906  2.2815  
               -1.58712  -0.584934  3.5992  
               3.57684  0.144706  1.4995  
               2.83784  -0.528204  -0.495564  
               -1.42808  0.758706  2.7986  
               0.046441  -0.556934  3.7843  
               -0.686599  0.914906  2.9179  
               -1.31178  0.798806  1.5466  
               1.66684  1.19791  3.0299  
               -2.32103  0.633806  1.4826  
               3.28714  1.49091  1.235  
               -0.861149  -1.30677  2.2941  
               -0.311359  -0.327694  3.9056  
               -3.73401  -0.074834  1.2717  
               1.87254  1.38211  1.8772  
               -2.36718  -1.40003  1.0228  
               0.475541  0.734206  3.6816  
               1.24374  1.07141  0.684396  
               2.91474  -0.510524  0.930496  
               4.04834  1.04161  -0.934924  
               1.30354  0.921306  3.447  
               2.93224  1.52111  0.098186  
               2.42964  0.627306  3.1725  
               3.59424  1.49321  0.682696  
               -0.231759  1.06271  2.5469  
               -2.74357  0.480606  1.6939  
               -1.28399  -0.180894  3.7562  
               -0.357559  0.968406  1.8373  
               -0.703919  -0.773084  3.6888  
               1.23444  -0.629994  3.2259  
               0.767641  -1.03862  1.0488  
               0.639041  0.907006  -0.173444  
               -2.96386  -1.45858  1.1042  
               1.73624  -0.330294  3.2994  
               -0.916819  0.269506  3.7525  
            </DataArray>
         </Points> 

         <Cells>
            <DataArray type="Int32" Name="connectivity" NumberOfComponents="1" format="ascii">
               
            </DataArray> 
            <DataArray type="Int32" Name="offsets" NumberOfComponents="1" format="ascii">
               
            </DataArray>
            <DataArray type="UInt8"  Name="types" NumberOfComponents="1" format="ascii">
               
            </DataArray>
         </Cells>
         <PointData Scalars="Data " Vectors="">
            <DataArray type="Float32" Name="Data" NumberOfComponents="1" format="ascii">
               0 0 0 0 0 0 0 0 0 0 0 0 0 0 0 0 0 0 0 0 0 0 0 0 0 0 0 0 0 0 0 0 0 0 0 0 0 0 0 0 0 0 0 0 0 0 0 0 0 0 0 0 0 0 0 0 0 0 0 0 0 0 0 0 0 0 0 0 0 0 0 0 0 0 0 0 0 0 0 0 0 0 0 0 0 0 0 0 0 0 0 0 0 0 0 0 0 0 0 0 0 0 0 0 0 0 0 0 0 0 0 0 0 0 0 0 0 0 0 0 0 0 0 0 0 0 0 0 0 0 0 0 0 0 0 0 0 0 0 0 0 0 0 0 0 0 0 0 0 0 0 0 0 0 0 0 0 0 0 0 0 0 0 0 0 0 0 0 0 0 0 0 0 0 0 0 0 0 0 0 0 0 0 0 0 0 0 0 0 0 0 0 0 0 0 0 0 0 0 0 0 0 0 0 0 0 0 0 0 0 0 0 0 0 0 0 0 0 0 0 0 0 0 0 0 0 0 0 0 0 0 0 0 0 0 0 0 0 0 0 0 0 0 0 0 0 0 0 0 0 0 0 
            </DataArray>
         </PointData> 
      </Piece>
   </UnstructuredGrid> 
</VTKFile>
