<?xml version="1.0"?>
<VTKFile type="UnstructuredGrid" version="0.1" byte_order="LittleEndian">
   <UnstructuredGrid>
      <Piece NumberOfPoints="165" NumberOfCells="0"> 
         <Points> 
            <DataArray type="Float32" Name="Position" NumberOfComponents="3" format="ascii"> 
               -0.328263  -0.515288  0.212252  
               -0.32899  -0.508006  0.260358  
               -0.323924  -0.501472  0.274073  
               -0.311902  -0.50735  0.284669  
               -0.28804  -0.511502  0.295135  
               -0.295335  -0.484056  0.302599  
               -0.258472  -0.512363  0.302267  
               -0.263942  -0.485032  0.318556  
               -0.022362  -0.511023  0.354423  
               -0.0224004  -0.498511  0.373314  
               0.00435635  -0.502095  0.3777  
               0.00339118  -0.472667  0.383961  
               0.032195  -0.503349  0.376874  
               0.0339241  -0.474628  0.384254  
               0.0585639  -0.503475  0.373084  
               0.0649802  -0.107416  0.412271  
               0.176306  -0.027476  0.405777  
               0.201193  -0.17075  0.425859  
               0.218407  -0.00445507  0.393065  
               0.242041  -0.287373  0.404419  
               0.24333  -0.071236  0.411136  
               0.240379  -0.00354112  0.389729  
               0.227073  0.205031  0.253176  
               0.22863  0.27425  0.180037  
               0.250068  -0.515326  0.271636  
               0.267054  -0.2864  0.400987  
               0.26713  -0.258294  0.404479  
               0.267235  -0.0709909  0.408519  
               0.282686  -0.377463  0.367309  
               0.290026  -0.284442  0.393171  
               0.289857  -0.258016  0.397363  
               0.290743  -0.0716283  0.402545  
               0.287872  -0.046144  0.39492  
               0.310364  -0.0471765  0.388887  
               0.309035  0.223095  0.229949  
               0.32682  -0.348009  0.362628  
               0.352122  -0.140609  0.385548  
               0.339258  0.247492  0.198373  
               0.359114  -0.498787  0.289046  
               0.354034  -0.483058  0.300159  
               0.373051  -0.16615  0.374708  
               0.374105  -0.140981  0.377584  
               0.365764  0.0591859  0.32058  
               0.394555  -0.141424  0.366578  
               0.387699  0.0561456  0.314805  
               0.393416  -0.469257  0.286825  
               0.417568  -0.311095  0.324189  
               0.431168  -0.14193  0.342719  
               0.422168  0.00305932  0.322767  
               0.417986  0.254082  0.124722  
               0.402867  0.208486  0.210771  
               0.435211  -0.00620667  0.320635  
               0.458132  -0.00169489  0.303658  
               0.462468  0.115492  0.24057  
               0.470651  0.226554  0.0387706  
               0.564322  -0.485052  0.0297713  
               0.507625  -0.0578072  0.284076  
               0.515622  -0.0334592  0.272531  
               0.504543  -0.0384094  0.283569  
               0.534045  -0.00393103  0.240507  
               0.509895  -0.0134169  0.270484  
               0.527578  0.0170889  0.236501  
               0.581604  0.0641424  -0.068057  
               0.571895  0.083342  -0.0665917  
               0.576363  0.0854277  -0.0468419  
               0.577398  0.0875482  0.0305375  
               0.568826  0.0872056  0.104317  
               0.551259  0.0844856  0.16021  
               0.565666  0.10332  -0.0457728  
               0.568694  0.105913  0.0111418  
               0.551391  0.105296  0.138826  
               0.54386  0.103585  0.156515  
               0.557544  0.122566  -0.00761989  
               0.546994  0.123855  0.117291  
               0.485202  0.110742  0.225431  
               0.540079  0.141106  0.0969379  
               0.527451  0.138886  0.148208  
               0.534277  0.155884  0.0265942  
               0.518455  0.155078  0.144152  
               0.489098  0.145909  0.196824  
               0.518194  0.162637  -0.0740027  
               0.508838  0.170177  0.14033  
               0.490342  0.162666  0.180313  
               0.4704  0.156954  0.206883  
               0.511335  0.181926  -0.0405902  
               0.505161  0.186652  0.105812  
               0.476548  0.17287  0.186043  
               0.474673  0.197842  0.15711  
               0.624446  -0.370667  0.189916  
               0.648325  -0.395643  0.15307  
               0.671929  -0.339209  0.169832  
               0.677231  -0.316287  0.171934  
               0.653631  -0.419305  0.118378  
               0.704298  -0.372163  -0.0386323  
               0.716146  -0.376472  0.0288077  
               0.720307  -0.350894  0.100604  
               0.69963  -0.343578  0.139777  
               0.683894  -0.336014  0.162959  
               0.738442  -0.329043  0.0277337  
               0.734947  -0.327055  0.0777184  
               0.728627  -0.325458  0.102042  
               0.717975  -0.323015  0.123609  
               0.689366  -0.31409  0.163978  
               0.736529  -0.301427  -0.023247  
               0.743479  -0.301709  0.00131042  
               0.74659  -0.301429  0.0275644  
               0.744867  -0.300564  0.0535883  
               0.733782  -0.298628  0.102549  
               0.72332  -0.297531  0.12416  
               0.699821  -0.294164  0.155632  
               0.692561  -0.292043  0.163178  
               0.738525  -0.272675  -0.0233645  
               0.746162  -0.271662  0.000817044  
               0.749545  -0.271082  0.0270985  
               0.748295  -0.270831  0.0535794  
               0.743533  -0.270674  0.0788845  
               0.735779  -0.270683  0.102525  
               0.725345  -0.270927  0.123647  
               0.713051  -0.27123  0.140928  
               0.700982  -0.27121  0.153661  
               0.734288  -0.245616  -0.0211431  
               0.745889  -0.241166  0.0266742  
               0.745881  -0.240624  0.0529743  
               0.741079  -0.241164  0.0783205  
               0.732701  -0.242739  0.101307  
               0.721757  -0.245113  0.120958  
               0.709921  -0.247818  0.13687  
               0.733512  -0.218697  0.00341519  
               0.736711  -0.216045  0.027191  
               0.736582  -0.215061  0.0521185  
               0.731076  -0.216896  0.0758614  
               -0.543463  0.18747  0.29745  
               -0.523304  0.193322  0.324137  
               -0.562881  0.21528  0.278372  
               -0.549812  0.2147  0.302381  
               -0.535518  0.21517  0.318909  
               -0.526626  0.216206  0.327118  
               -0.560863  0.244671  0.278856  
               -0.548757  0.242386  0.302277  
               -0.535081  0.240226  0.318473  
               -0.554112  0.269395  0.277126  
               -0.516435  0.322525  0.31625  
               -0.53114  0.383641  0.245371  
               -0.538394  0.459025  0.142147  
               -0.512592  0.214732  0.336056  
               -0.496604  0.308625  0.345369  
               -0.492105  0.330985  0.338822  
               -0.475758  0.284056  0.366159  
               -0.473915  0.312298  0.361264  
               -0.459157  0.38814  0.322814  
               -0.443866  0.286329  0.377218  
               -0.442812  0.315265  0.371728  
               -0.441629  0.339301  0.361436  
               -0.440461  0.359103  0.350304  
               -0.414155  0.206852  0.373658  
               -0.414052  0.23709  0.377662  
               -0.409555  0.315155  0.367258  
               -0.410533  0.33791  0.35898  
               -0.412059  0.358025  0.349646  
               -0.37729  0.241553  0.377297  
               -0.389622  0.37273  0.334542  
               -0.362266  0.415616  0.298751  
               -0.330813  0.479456  0.237288  
               -0.0259088  0.702575  -0.125463  
               0.129467  0.735435  -0.298235  
            </DataArray>
         </Points> 

         <Cells>
            <DataArray type="Int32" Name="connectivity" NumberOfComponents="1" format="ascii">
               
            </DataArray> 
            <DataArray type="Int32" Name="offsets" NumberOfComponents="1" format="ascii">
               
            </DataArray>
            <DataArray type="UInt8"  Name="types" NumberOfComponents="1" format="ascii">
               
            </DataArray>
         </Cells>
         <PointData Scalars="Data " Vectors="">
            <DataArray type="Float32" Name="Data" NumberOfComponents="1" format="ascii">
               0 0 0 0 0 0 0 0 0 0 0 0 0 0 0 0 0 0 0 0 0 0 0 0 0 0 0 0 0 0 0 0 0 0 0 0 0 0 0 0 0 0 0 0 0 0 0 0 0 0 0 0 0 0 0 0 0 0 0 0 0 0 0 0 0 0 0 0 0 0 0 0 0 0 0 0 0 0 0 0 0 0 0 0 0 0 0 0 0 0 0 0 0 0 0 0 0 0 0 0 0 0 0 0 0 0 0 0 0 0 0 0 0 0 0 0 0 0 0 0 0 0 0 0 0 0 0 0 0 0 0 0 0 0 0 0 0 0 0 0 0 0 0 0 0 0 0 0 0 0 0 0 0 0 0 0 0 0 0 0 0 0 0 0 0 
            </DataArray>
         </PointData> 
      </Piece>
   </UnstructuredGrid> 
</VTKFile>
