<?xml version="1.0"?>
<VTKFile type="UnstructuredGrid" version="0.1" byte_order="LittleEndian">
   <UnstructuredGrid>
      <Piece NumberOfPoints="248" NumberOfCells="0"> 
         <Points> 
            <DataArray type="Float32" Name="Position" NumberOfComponents="3" format="ascii"> 
               -1.48492  0.665606  -3.1513  
               3.73204  0.187906  -1.31973  
               -0.218059  -0.489374  -3.80652  
               -1.0781  0.891706  -2.42045  
               0.495541  -0.380754  -3.77846  
               0.053641  1.12291  -2.44158  
               0.409141  0.968806  -1.14621  
               2.01634  1.41401  -2.21199  
               2.48954  0.835106  -3.16852  
               -1.02572  -1.20837  -2.15655  
               0.768841  -0.904814  -2.37124  
               -0.179759  0.895606  -1.22322  
               2.89764  -0.330874  -1.82744  
               0.013941  -0.720894  -3.50961  
               -2.68523  0.550306  -0.706694  
               -2.29771  0.619406  0.586196  
               -2.20122  -0.828584  -3.21749  
               -0.013059  1.06741  -2.01303  
               -3.02225  0.471206  -0.260454  
               -3.29537  -0.809574  -2.37146  
               0.574041  -0.871424  -2.85094  
               0.341441  -0.982094  -0.316984  
               -1.21444  0.759306  -1.13054  
               1.67194  1.29211  -2.83576  
               2.49194  -0.394084  -2.29893  
               2.02984  -0.587094  -2.28577  
               -2.77788  -0.951204  -2.76203  
               0.566441  -0.961874  -1.87842  
               3.44604  0.698506  -2.34571  
               -2.70956  -1.28074  -2.22451  
               3.36714  0.017976  -1.81606  
               -3.7565  0.066606  0.776996  
               -3.96736  -1.32836  -0.088464  
               -1.8133  0.726006  -1.79118  
               1.05944  -0.933104  -0.369634  
               1.27984  -0.896984  -0.835184  
               -0.483759  0.750706  -0.474934  
               -2.50043  -1.38973  0.049896  
               1.18814  -0.197534  -3.67792  
               0.211041  1.02751  -1.57938  
               -3.25456  0.137506  -1.89067  
               -2.14009  0.548706  -2.46516  
               -0.101059  0.185806  -4.00798  
               -0.124659  -1.00326  -2.83632  
               -3.65664  -1.32727  -1.20583  
               -3.56301  -1.07849  -1.80782  
               -2.62956  -1.43862  -1.05281  
               -2.17137  -1.32987  0.457096  
               -0.542059  -1.08494  -0.932734  
               0.440041  -0.998044  -1.46387  
               -2.107  0.624406  -0.558624  
               -0.430259  -0.984474  -3.12433  
               -1.42959  0.105206  -3.78174  
               -3.67266  0.131006  -0.855224  
               -0.132059  1.00131  -3.23579  
               1.19144  -0.736104  -2.76027  
               -4.14055  -0.733584  -0.846874  
               -3.09412  -1.12399  -2.22501  
               -1.15815  -1.07227  -3.03952  
               -1.91069  0.640406  0.362426  
               2.54364  -0.179114  -2.73561  
               -1.09377  -1.17071  -1.12009  
               -2.03833  0.620406  -0.058894  
               -3.68325  -0.062744  -1.42164  
               -2.14833  -1.32593  -2.17848  
               -3.77788  -1.38744  0.533296  
               0.372641  -1.00794  -1.03635  
               3.34824  0.265006  -2.22723  
               -2.34054  0.614206  -1.49679  
               0.804641  1.12131  -1.50191  
               0.059541  0.809706  -0.311584  
               1.45134  -0.739234  -2.43174  
               0.343741  0.558806  -3.90058  
               -2.07299  0.334706  -3.20207  
               -1.75149  -1.00114  -3.13824  
               2.89364  0.571106  -2.93417  
               -3.47446  -1.39411  1.1275  
               0.477941  0.873206  -3.68432  
               1.02004  0.816806  -3.71712  
               -3.00343  -1.49181  0.041216  
               -0.507559  -0.220114  -3.97084  
               -0.871339  0.908506  -1.82491  
               -1.00247  0.877506  -2.88029  
               -4.00379  -0.252654  -0.874304  
               1.92834  -0.505854  -2.70069  
               -4.1851  -0.475784  -0.280294  
               -3.89031  -1.15843  1.1046  
               2.11364  1.12141  -3.07062  
               -2.0101  -1.29295  -0.216314  
               -1.26749  0.847406  -2.04293  
               1.08154  -0.900484  -1.5866  
               -4.22555  -0.669494  0.371026  
               -0.338759  0.966206  -1.6779  
               -2.30083  0.579706  -1.99556  
               1.54464  -0.527864  -2.98459  
               1.87864  -0.009994  -3.43745  
               0.955141  -0.677624  -3.1635  
               0.479541  1.08611  -3.27673  
               1.17704  -0.857644  -2.03486  
               -0.107759  -1.05805  -1.23157  
               2.24914  1.31221  -2.59307  
               1.42364  1.33741  -2.34333  
               -0.763159  0.136706  -3.96694  
               2.04864  -0.227544  -3.08192  
               -3.66993  0.168106  0.252466  
               3.70054  0.473606  -1.80337  
               -2.46826  -0.464164  -3.25423  
               -0.643559  -0.829614  -3.46871  
               -2.50513  0.283706  -2.75697  
               3.82814  0.886106  -1.663  
               1.04454  1.12881  -3.29777  
               1.56294  1.19001  -0.810124  
               -3.18543  0.424706  0.220286  
               -2.09716  -1.34025  -0.863994  
               -1.1351  -1.21946  -1.63504  
               -0.228059  0.551806  -3.88109  
               -1.90889  -0.349964  -3.59266  
               0.218941  -0.982404  -2.52304  
               1.94494  1.33901  -1.19141  
               -2.28538  -1.15936  -2.72513  
               1.32164  0.496906  -3.76626  
               -0.113859  0.838606  -3.63262  
               -2.84183  0.421906  -1.71921  
               0.231941  -0.095884  -3.97655  
               1.41834  -0.368324  -3.37236  
               2.48724  1.43691  -1.04918  
               2.13394  -0.699834  -1.35312  
               -2.52119  0.573706  -0.265734  
               -3.1755  -1.46797  -1.14362  
               0.962641  1.06011  -0.985534  
               -1.67087  0.685006  -0.876284  
               -1.52428  0.747106  -2.67979  
               1.10854  1.02921  -0.500484  
               -2.72218  -1.44559  0.558096  
               1.70344  1.34501  -1.78173  
               -0.786199  -1.09582  -0.176074  
               1.10494  1.25501  -1.90785  
               -0.612959  -1.13023  -1.43461  
               0.288041  -0.826834  -3.20686  
               1.50464  1.08111  -3.30179  
               -1.56264  0.657506  -0.367044  
               -0.385059  0.723606  0.010976  
               0.643941  0.357306  -3.94471  
               -3.9231  -0.495494  -1.43201  
               2.30394  1.44261  -1.64876  
               -2.57529  0.574706  0.181276  
               -1.57392  -1.21595  -0.711444  
               0.922241  0.047476  -3.87824  
               -3.92678  -0.052834  -0.307064  
               0.550941  0.926506  -0.651724  
               1.76244  0.858206  -3.46172  
               -2.6979  -0.063044  -3.00224  
               -1.05086  -1.13432  0.211156  
               -0.389559  -1.09546  -2.37598  
               -2.23067  0.634006  -1.03352  
               -0.163959  -1.03902  -0.132964  
               3.06834  1.25181  -2.22936  
               -0.354459  -1.05801  -0.495984  
               -1.76328  -1.19699  -2.67895  
               -4.12813  -1.08637  0.486896  
               0.675741  -0.955924  -0.695564  
               -1.63054  -1.29541  -1.86847  
               -1.59216  -0.658304  -3.55404  
               -2.15114  -1.36628  -1.50532  
               1.94434  0.534006  -3.50588  
               -1.79067  0.713506  -1.31347  
               -1.69953  0.733406  -2.23954  
               0.104841  -1.03121  -2.12311  
               -0.612259  0.793806  -0.936894  
               -2.65828  -1.41713  -1.64929  
               -4.04297  -0.364854  0.835896  
               -3.52649  -1.49498  -0.025274  
               2.86844  1.48741  -1.43443  
               2.52234  0.143006  -3.08693  
               3.51024  1.08921  -2.01079  
               2.65534  1.42581  -2.07028  
               -4.22385  -0.936654  -0.173444  
               -1.22366  -0.271774  -3.85248  
               -3.28754  -1.49365  0.579396  
               3.70054  1.26711  -1.35936  
               -0.959359  0.694006  -0.198754  
               1.73184  -0.727054  -2.03989  
               0.752941  1.24621  -2.42653  
               -2.79465  0.507006  -1.18108  
               -3.92801  -0.950514  -1.34582  
               -1.63696  -1.2742  -1.2694  
               -1.94028  0.529306  -2.87056  
               -3.54992  -0.243094  -2.0005  
               -0.019559  0.850306  -0.771854  
               -4.04955  -0.204584  0.297226  
               -3.04676  0.034546  -2.44362  
               -3.15854  -1.34978  -1.70609  
               -1.31691  0.801306  -1.5683  
               2.73964  -0.508704  -1.40215  
               0.728641  -0.572354  -3.50197  
               -3.2512  -0.368214  -2.48876  
               -1.66754  -1.22909  0.297986  
               -3.5119  0.271306  -0.265254  
               -1.2172  -0.839184  -3.42162  
               -0.895229  -0.556384  -3.76185  
               -1.09413  0.717706  -0.654994  
               -4.08508  -0.786084  1.0173  
               1.88994  -0.783134  -0.895424  
               -3.68467  -0.679584  -1.93645  
               -0.347959  1.01911  -2.8973  
               -0.755329  0.847706  -1.37913  
               3.29094  -0.199454  -1.36257  
               -1.41923  0.659306  0.105926  
               2.98474  -0.097804  -2.29048  
               -2.83646  0.532306  0.656296  
               -1.40706  -1.17622  -0.210924  
               1.36484  1.21901  -1.35928  
               1.68154  -0.782554  -1.67795  
               -0.059659  -1.06181  -1.68901  
               2.29034  0.381006  -3.34832  
               -4.02365  -1.18884  -0.711754  
               -0.577459  1.00111  -2.16276  
               0.902341  -0.944574  -1.14403  
               -0.839749  0.521606  -3.77508  
               -0.546859  1.00021  -2.57135  
               2.30684  -0.595294  -1.81834  
               -0.992569  -1.12387  -0.610844  
               1.00394  1.26361  -2.85987  
               -3.33808  0.342506  0.779696  
               3.02984  0.258606  -2.68406  
               2.65464  1.18411  -2.68051  
               -0.821239  -1.13047  -2.68153  
               -1.40257  0.509406  -3.54647  
               -1.45242  -1.24451  -2.4339  
               -0.661849  0.763206  -3.53581  
               -3.10704  -1.51041  -0.552684  
               1.60514  0.186106  -3.65912  
               -3.2232  0.382406  -0.773184  
               3.07644  0.948906  -2.63075  
               -2.58826  -1.43675  -0.474874  
               -3.63821  -1.45876  -0.615664  
               -2.72769  0.347506  -2.2568  
               0.030141  -1.02532  -0.732464  
               -3.28512  0.273906  -1.32817  
               -2.06434  0.056406  -3.46892  
               -0.845689  0.842506  -3.25257  
               1.52744  -0.844614  -1.27382  
               2.52714  -0.614204  -0.945414  
               -0.561259  -1.1377  -1.91915  
               3.25304  1.39421  -1.69358  
               -2.92419  -0.517674  -2.83178  
               0.530241  1.15521  -1.99466  
               0.333941  1.16761  -2.84807  
            </DataArray>
         </Points> 

         <Cells>
            <DataArray type="Int32" Name="connectivity" NumberOfComponents="1" format="ascii">
               
            </DataArray> 
            <DataArray type="Int32" Name="offsets" NumberOfComponents="1" format="ascii">
               
            </DataArray>
            <DataArray type="UInt8"  Name="types" NumberOfComponents="1" format="ascii">
               
            </DataArray>
         </Cells>
         <PointData Scalars="Data " Vectors="">
            <DataArray type="Float32" Name="Data" NumberOfComponents="1" format="ascii">
               0 0 0 0 0 0 0 0 0 0 0 0 0 0 0 0 0 0 0 0 0 0 0 0 0 0 0 0 0 0 0 0 0 0 0 0 0 0 0 0 0 0 0 0 0 0 0 0 0 0 0 0 0 0 0 0 0 0 0 0 0 0 0 0 0 0 0 0 0 0 0 0 0 0 0 0 0 0 0 0 0 0 0 0 0 0 0 0 0 0 0 0 0 0 0 0 0 0 0 0 0 0 0 0 0 0 0 0 0 0 0 0 0 0 0 0 0 0 0 0 0 0 0 0 0 0 0 0 0 0 0 0 0 0 0 0 0 0 0 0 0 0 0 0 0 0 0 0 0 0 0 0 0 0 0 0 0 0 0 0 0 0 0 0 0 0 0 0 0 0 0 0 0 0 0 0 0 0 0 0 0 0 0 0 0 0 0 0 0 0 0 0 0 0 0 0 0 0 0 0 0 0 0 0 0 0 0 0 0 0 0 0 0 0 0 0 0 0 0 0 0 0 0 0 0 0 0 0 0 0 0 0 0 0 0 0 0 0 0 0 0 0 0 0 0 0 0 0 
            </DataArray>
         </PointData> 
      </Piece>
   </UnstructuredGrid> 
</VTKFile>
