<?xml version="1.0"?>
<VTKFile type="UnstructuredGrid" version="0.1" byte_order="LittleEndian">
   <UnstructuredGrid>
      <Piece NumberOfPoints="125" NumberOfCells="0"> 
         <Points> 
            <DataArray type="Float32" Name="Position" NumberOfComponents="3" format="ascii"> 
               -0.330676  -0.517842  -0.141078  
               -0.328263  -0.515288  0.212252  
               -0.32899  -0.508006  0.260358  
               -0.323924  -0.501472  0.274073  
               -0.346493  -0.507534  -0.1316  
               -0.360181  -0.521516  -0.0152641  
               -0.342096  -0.494361  0.210149  
               -0.311902  -0.50735  0.284669  
               -0.28804  -0.511502  0.295135  
               -0.295335  -0.484056  0.302599  
               -0.258472  -0.512363  0.302267  
               -0.263942  -0.485032  0.318556  
               -0.17238  -0.52509  -0.132458  
               -0.147468  -0.516693  -0.290873  
               -0.127938  -0.523317  -0.300509  
               -0.022362  -0.511023  0.354423  
               -0.0224004  -0.498511  0.373314  
               0.00435635  -0.502095  0.3777  
               0.00339118  -0.472667  0.383961  
               0.032195  -0.503349  0.376874  
               0.0339241  -0.474628  0.384254  
               0.0585639  -0.503475  0.373084  
               0.0649802  -0.107416  0.412271  
               0.176306  -0.027476  0.405777  
               0.201193  -0.17075  0.425859  
               0.218407  -0.00445507  0.393065  
               0.242041  -0.287373  0.404419  
               0.24333  -0.071236  0.411136  
               0.240379  -0.00354112  0.389729  
               0.227073  0.205031  0.253176  
               0.250068  -0.515326  0.271636  
               0.267054  -0.2864  0.400987  
               0.26713  -0.258294  0.404479  
               0.267235  -0.0709909  0.408519  
               0.282686  -0.377463  0.367309  
               0.290026  -0.284442  0.393171  
               0.289857  -0.258016  0.397363  
               0.290743  -0.0716283  0.402545  
               0.287872  -0.046144  0.39492  
               0.310364  -0.0471765  0.388887  
               0.309035  0.223095  0.229949  
               0.32682  -0.348009  0.362628  
               0.352122  -0.140609  0.385548  
               0.359114  -0.498787  0.289046  
               0.354034  -0.483058  0.300159  
               0.373051  -0.16615  0.374708  
               0.374105  -0.140981  0.377584  
               0.365764  0.0591859  0.32058  
               0.394555  -0.141424  0.366578  
               0.387699  0.0561456  0.314805  
               0.393416  -0.469257  0.286825  
               0.417568  -0.311095  0.324189  
               0.422168  0.00305932  0.322767  
               0.435211  -0.00620667  0.320635  
               -0.553114  0.195158  -0.0137104  
               -0.569317  0.213668  0.0254426  
               -0.543463  0.18747  0.29745  
               -0.523304  0.193322  0.324137  
               -0.570938  0.238213  0.0255918  
               -0.578999  0.234482  0.0679401  
               -0.580852  0.232013  0.090442  
               -0.579518  0.229737  0.113631  
               -0.568613  0.217443  0.25021  
               -0.562881  0.21528  0.278372  
               -0.549812  0.2147  0.302381  
               -0.535518  0.21517  0.318909  
               -0.526626  0.216206  0.327118  
               -0.562939  0.263085  0.00631236  
               -0.577371  0.259924  0.0685295  
               -0.580348  0.25842  0.0908782  
               -0.579605  0.256441  0.114257  
               -0.565896  0.246283  0.251678  
               -0.560863  0.244671  0.278856  
               -0.548757  0.242386  0.302277  
               -0.535081  0.240226  0.318473  
               -0.554112  0.269395  0.277126  
               -0.516435  0.322525  0.31625  
               -0.53114  0.383641  0.245371  
               -0.556207  0.417734  0.0728403  
               -0.554397  0.441797  0.0977415  
               -0.552745  0.438675  0.120208  
               -0.535729  0.468527  0.0275917  
               -0.538394  0.459025  0.142147  
               -0.512592  0.214732  0.336056  
               -0.444074  -0.0982256  -0.162179  
               -0.506614  -0.126165  0.0568174  
               -0.484979  -0.0904281  -0.109537  
               -0.489918  -0.0675703  -0.109742  
               -0.518066  -0.0787837  -0.0398057  
               -0.510855  -0.0747795  -0.0647627  
               -0.528083  -0.056692  -0.0148957  
               -0.530964  -0.0605872  0.0103723  
               -0.537277  -0.0375799  0.0354144  
               -0.534904  -0.0419854  0.0866217  
               -0.527851  -0.0425504  0.112368  
               -0.496604  0.308625  0.345369  
               -0.492105  0.330985  0.338822  
               -0.475758  0.284056  0.366159  
               -0.473915  0.312298  0.361264  
               -0.459157  0.38814  0.322814  
               -0.413243  -0.103104  -0.19359  
               -0.443866  0.286329  0.377218  
               -0.442812  0.315265  0.371728  
               -0.441629  0.339301  0.361436  
               -0.440461  0.359103  0.350304  
               -0.416407  0.704449  -0.522191  
               -0.434902  0.698564  -0.494935  
               -0.439786  0.687702  -0.466373  
               -0.414155  0.206852  0.373658  
               -0.414052  0.23709  0.377662  
               -0.409555  0.315155  0.367258  
               -0.410533  0.33791  0.35898  
               -0.412059  0.358025  0.349646  
               -0.337899  0.57822  -0.57447  
               -0.341578  0.574417  -0.568864  
               -0.352266  0.561535  -0.549604  
               -0.37729  0.241553  0.377297  
               -0.389622  0.37273  0.334542  
               -0.383024  0.523381  0.0253888  
               -0.360906  -0.517132  -0.111632  
               -0.366462  -0.522091  -0.081469  
               -0.383521  -0.484284  -0.0480341  
               -0.383924  -0.485479  -0.00713261  
               -0.362266  0.415616  0.298751  
               -0.330813  0.479456  0.237288  
            </DataArray>
         </Points> 

         <Cells>
            <DataArray type="Int32" Name="connectivity" NumberOfComponents="1" format="ascii">
               
            </DataArray> 
            <DataArray type="Int32" Name="offsets" NumberOfComponents="1" format="ascii">
               
            </DataArray>
            <DataArray type="UInt8"  Name="types" NumberOfComponents="1" format="ascii">
               
            </DataArray>
         </Cells>
         <PointData Scalars="Data " Vectors="">
            <DataArray type="Float32" Name="Data" NumberOfComponents="1" format="ascii">
               0 0 0 0 0 0 0 0 0 0 0 0 0 0 0 0 0 0 0 0 0 0 0 0 0 0 0 0 0 0 0 0 0 0 0 0 0 0 0 0 0 0 0 0 0 0 0 0 0 0 0 0 0 0 0 0 0 0 0 0 0 0 0 0 0 0 0 0 0 0 0 0 0 0 0 0 0 0 0 0 0 0 0 0 0 0 0 0 0 0 0 0 0 0 0 0 0 0 0 0 0 0 0 0 0 0 0 0 0 0 0 0 0 0 0 0 0 0 0 0 0 0 0 0 0 
            </DataArray>
         </PointData> 
      </Piece>
   </UnstructuredGrid> 
</VTKFile>
