<?xml version="1.0"?>
<VTKFile type="UnstructuredGrid" version="0.1" byte_order="LittleEndian">
   <UnstructuredGrid>
      <Piece NumberOfPoints="116" NumberOfCells="0"> 
         <Points> 
            <DataArray type="Float32" Name="Position" NumberOfComponents="3" format="ascii"> 
               -0.330676  -0.517842  -0.141078  
               -0.32899  -0.508006  0.260358  
               -0.346493  -0.507534  -0.1316  
               -0.360181  -0.521516  -0.0152641  
               -0.342096  -0.494361  0.210149  
               -0.17238  -0.52509  -0.132458  
               -0.147468  -0.516693  -0.290873  
               -0.127938  -0.523317  -0.300509  
               -0.110966  -0.506036  -0.322976  
               -0.080752  -0.512432  -0.333099  
               -0.0479718  -0.514321  -0.332696  
               -0.018757  -0.514717  -0.328958  
               0.066234  -0.194316  -0.407968  
               0.091828  -0.242369  -0.400328  
               0.0942264  -0.192774  -0.408758  
               0.115338  -0.286853  -0.38715  
               0.120217  -0.191883  -0.404187  
               0.180864  -0.278912  -0.378504  
               0.236059  -0.388789  -0.334226  
               0.246199  -0.274304  -0.364822  
               0.240884  -0.511668  -0.278366  
               0.243675  -0.492043  -0.286236  
               0.273551  -0.160321  -0.372196  
               0.294799  -0.184077  -0.364094  
               0.296572  -0.135491  -0.363154  
               0.303693  -0.51822  -0.236319  
               0.319704  -0.35826  -0.327496  
               0.359398  -0.0702642  -0.328235  
               0.345857  -0.501368  -0.253448  
               0.373336  -0.22099  -0.330935  
               0.383881  -0.326597  -0.315635  
               0.394016  -0.218912  -0.321606  
               0.383763  -0.450477  -0.261997  
               0.403398  -0.349647  -0.303257  
               0.414144  -0.217201  -0.310626  
               0.424479  -0.321171  -0.295663  
               0.435655  -0.0915482  -0.288046  
               0.524499  -0.107482  -0.231102  
               0.525006  -0.086747  -0.230751  
               0.537463  -0.0839872  -0.220472  
               0.535328  -0.0627709  -0.218575  
               0.559366  -0.0551449  -0.189009  
               0.514346  -0.0507115  -0.232873  
               0.531368  -0.0425018  -0.21545  
               0.576656  -0.026406  -0.151626  
               0.583378  0.0413657  -0.0890838  
               0.511181  0.0594229  -0.190134  
               0.528373  0.0653812  -0.170148  
               0.538563  0.0687988  -0.15456  
               0.531685  0.087548  -0.149601  
               0.514971  0.139023  -0.121873  
               0.651821  -0.373205  -0.104355  
               0.658149  -0.348687  -0.110639  
               0.68621  -0.295307  -0.0981454  
               0.654277  -0.418005  -0.0582495  
               0.694716  -0.343505  -0.0774084  
               0.695123  -0.317638  -0.0887768  
               0.697826  -0.295218  -0.0870687  
               0.726921  -0.300627  -0.0454932  
               0.715218  -0.299147  -0.0641287  
               0.727935  -0.273844  -0.0447419  
               0.738525  -0.272675  -0.0233645  
               0.725507  -0.2486  -0.042013  
               0.714012  -0.251851  -0.0593422  
               0.719609  -0.226886  -0.0382713  
               -0.553114  0.195158  -0.0137104  
               -0.569317  0.213668  0.0254426  
               -0.570938  0.238213  0.0255918  
               -0.578999  0.234482  0.0679401  
               -0.580852  0.232013  0.090442  
               -0.579518  0.229737  0.113631  
               -0.568613  0.217443  0.25021  
               -0.562881  0.21528  0.278372  
               -0.562939  0.263085  0.00631236  
               -0.577371  0.259924  0.0685295  
               -0.580348  0.25842  0.0908782  
               -0.579605  0.256441  0.114257  
               -0.565896  0.246283  0.251678  
               -0.556207  0.417734  0.0728403  
               -0.554397  0.441797  0.0977415  
               -0.552745  0.438675  0.120208  
               -0.535729  0.468527  0.0275917  
               -0.444074  -0.0982256  -0.162179  
               -0.506614  -0.126165  0.0568174  
               -0.484979  -0.0904281  -0.109537  
               -0.489918  -0.0675703  -0.109742  
               -0.518066  -0.0787837  -0.0398057  
               -0.510855  -0.0747795  -0.0647627  
               -0.528083  -0.056692  -0.0148957  
               -0.530964  -0.0605872  0.0103723  
               -0.537277  -0.0375799  0.0354144  
               -0.534904  -0.0419854  0.0866217  
               -0.527851  -0.0425504  0.112368  
               -0.413243  -0.103104  -0.19359  
               -0.416407  0.704449  -0.522191  
               -0.434902  0.698564  -0.494935  
               -0.439786  0.687702  -0.466373  
               -0.337899  0.57822  -0.57447  
               -0.341578  0.574417  -0.568864  
               -0.352266  0.561535  -0.549604  
               -0.324988  0.675822  -0.598583  
               -0.33101  0.687594  -0.594476  
               -0.340805  0.707643  -0.582567  
               -0.327355  0.573586  -0.575664  
               -0.322478  0.595348  -0.585916  
               -0.318649  0.612275  -0.591806  
               -0.313943  0.632323  -0.597624  
               -0.30765  0.654767  -0.603247  
               -0.300814  0.676981  -0.602071  
               -0.383024  0.523381  0.0253888  
               -0.360906  -0.517132  -0.111632  
               -0.366462  -0.522091  -0.081469  
               -0.383521  -0.484284  -0.0480341  
               -0.383924  -0.485479  -0.00713261  
               0.0677062  0.746057  -0.279153  
               0.141928  0.705609  -0.313269  
            </DataArray>
         </Points> 

         <Cells>
            <DataArray type="Int32" Name="connectivity" NumberOfComponents="1" format="ascii">
               
            </DataArray> 
            <DataArray type="Int32" Name="offsets" NumberOfComponents="1" format="ascii">
               
            </DataArray>
            <DataArray type="UInt8"  Name="types" NumberOfComponents="1" format="ascii">
               
            </DataArray>
         </Cells>
         <PointData Scalars="Data " Vectors="">
            <DataArray type="Float32" Name="Data" NumberOfComponents="1" format="ascii">
               0 0 0 0 0 0 0 0 0 0 0 0 0 0 0 0 0 0 0 0 0 0 0 0 0 0 0 0 0 0 0 0 0 0 0 0 0 0 0 0 0 0 0 0 0 0 0 0 0 0 0 0 0 0 0 0 0 0 0 0 0 0 0 0 0 0 0 0 0 0 0 0 0 0 0 0 0 0 0 0 0 0 0 0 0 0 0 0 0 0 0 0 0 0 0 0 0 0 0 0 0 0 0 0 0 0 0 0 0 0 0 0 0 0 0 0 
            </DataArray>
         </PointData> 
      </Piece>
   </UnstructuredGrid> 
</VTKFile>
