<?xml version="1.0"?>
<VTKFile type="UnstructuredGrid" version="0.1" byte_order="LittleEndian">
   <UnstructuredGrid>
      <Piece NumberOfPoints="252" NumberOfCells="0"> 
         <Points> 
            <DataArray type="Float32" Name="Position" NumberOfComponents="3" format="ascii"> 
               -1.48492  0.665606  -3.1513  
               1.63684  -0.848154  -0.458954  
               3.73204  0.187906  -1.31973  
               -0.218059  -0.489374  -3.80652  
               -1.0781  0.891706  -2.42045  
               2.93184  1.44701  1.7938  
               2.42164  1.45471  0.904796  
               0.495541  -0.380754  -3.77846  
               0.053641  1.12291  -2.44158  
               0.252541  0.849906  0.570996  
               0.409141  0.968806  -1.14621  
               2.01634  1.41401  -2.21199  
               2.48954  0.835106  -3.16852  
               -1.02572  -1.20837  -2.15655  
               0.768841  -0.904814  -2.37124  
               3.32794  -0.212814  1.1734  
               -0.179759  0.895606  -1.22322  
               2.89764  -0.330874  -1.82744  
               0.013941  -0.720894  -3.50961  
               -2.20122  -0.828584  -3.21749  
               3.46874  -0.190594  0.697996  
               -0.013059  1.06741  -2.01303  
               0.574041  -0.871424  -2.85094  
               0.341441  -0.982094  -0.316984  
               3.38024  0.552906  2.2561  
               1.67194  1.29211  -2.83576  
               2.49194  -0.394084  -2.29893  
               2.02984  -0.587094  -2.28577  
               0.566441  -0.961874  -1.87842  
               3.44604  0.698506  -2.34571  
               3.36714  0.017976  -1.81606  
               3.23234  0.051706  2.1149  
               2.12854  -0.497124  2.6529  
               3.79654  1.26961  1.179  
               1.05944  -0.933104  -0.369634  
               3.61464  0.458406  1.8075  
               1.27984  -0.896984  -0.835184  
               -0.483759  0.750706  -0.474934  
               1.82794  -0.867034  1.0177  
               3.86784  0.122106  0.346746  
               2.22504  1.17571  2.8452  
               1.18814  -0.197534  -3.67792  
               1.83234  -0.803304  1.9916  
               0.211041  1.02751  -1.57938  
               4.01314  1.27361  0.476596  
               -0.101059  0.185806  -4.00798  
               -0.124659  -1.00326  -2.83632  
               3.11404  -0.382604  -0.930404  
               2.52874  1.35251  2.3307  
               3.05694  -0.458614  -0.045094  
               0.440041  -0.998044  -1.46387  
               3.80694  1.40261  -0.673144  
               -0.430259  -0.984474  -3.12433  
               -1.42959  0.105206  -3.78174  
               2.31824  -0.226994  2.9506  
               3.80014  0.181506  0.958096  
               -0.132059  1.00131  -3.23579  
               2.47754  1.43431  0.434786  
               1.19144  -0.736104  -2.76027  
               -1.15815  -1.07227  -3.03952  
               2.54364  -0.179114  -2.73561  
               1.30854  -0.967644  1.2774  
               3.81844  0.036916  -0.292334  
               2.44704  1.39681  -0.113854  
               1.37784  1.27231  1.6354  
               0.372641  -1.00794  -1.03635  
               3.34824  0.265006  -2.22723  
               2.70614  1.02691  2.8036  
               0.804641  1.12131  -1.50191  
               0.059541  0.809706  -0.311584  
               1.45134  -0.739234  -2.43174  
               0.343741  0.558806  -3.90058  
               -2.07299  0.334706  -3.20207  
               -1.75149  -1.00114  -3.13824  
               2.89364  0.571106  -2.93417  
               1.91924  1.29191  0.708896  
               0.477941  0.873206  -3.68432  
               1.02004  0.816806  -3.71712  
               -0.507559  -0.220114  -3.97084  
               -0.871339  0.908506  -1.82491  
               -1.00247  0.877506  -2.88029  
               1.92834  -0.505854  -2.70069  
               2.13304  1.31831  -0.575044  
               2.11364  1.12141  -3.07062  
               1.98794  -0.788144  -0.140574  
               -1.26749  0.847406  -2.04293  
               1.08154  -0.900484  -1.5866  
               2.93114  0.143506  2.624  
               -0.338759  0.966206  -1.6779  
               3.36654  -0.280934  -0.452624  
               1.54464  -0.527864  -2.98459  
               1.87864  -0.009994  -3.43745  
               1.62124  1.16521  -0.259554  
               0.955141  -0.677624  -3.1635  
               0.479541  1.08611  -3.27673  
               1.17704  -0.857644  -2.03486  
               3.19684  -0.183384  1.6611  
               -0.107759  -1.05805  -1.23157  
               2.24914  1.31221  -2.59307  
               1.42364  1.33741  -2.34333  
               4.10074  1.18221  -0.238214  
               -0.763159  0.136706  -3.96694  
               2.04864  -0.227544  -3.08192  
               3.70054  0.473606  -1.80337  
               -0.643559  -0.829614  -3.46871  
               1.61494  1.17341  0.307636  
               3.82814  0.886106  -1.663  
               1.04454  1.12881  -3.29777  
               1.56294  1.19001  -0.810124  
               -0.228059  0.551806  -3.88109  
               -1.90889  -0.349964  -3.59266  
               0.218941  -0.982404  -2.52304  
               2.30024  -0.574664  2.2191  
               3.14574  -0.413984  0.443116  
               3.50744  -0.195284  0.108416  
               1.94494  1.33901  -1.19141  
               1.32164  0.496906  -3.76626  
               -0.113859  0.838606  -3.63262  
               2.83254  -0.493464  1.4428  
               0.231941  -0.095884  -3.97655  
               2.69714  1.50151  1.323  
               4.06124  0.948106  0.957796  
               1.41834  -0.368324  -3.37236  
               2.48724  1.43691  -1.04918  
               2.99564  1.23671  2.26  
               2.36224  -0.658334  1.7346  
               1.55424  1.24091  1.1165  
               2.13394  -0.699834  -1.35312  
               0.626741  0.939306  0.855396  
               0.962641  1.06011  -0.985534  
               -1.52428  0.747106  -2.67979  
               1.22894  -0.958444  0.811796  
               2.03724  1.39531  1.3429  
               1.10854  1.02921  -0.500484  
               1.70344  1.34501  -1.78173  
               1.44924  -0.890044  0.039516  
               2.38734  -0.695494  1.2077  
               3.61604  -0.063804  -0.868164  
               1.10494  1.25501  -1.90785  
               -0.612959  -1.13023  -1.43461  
               0.288041  -0.826834  -3.20686  
               1.50464  1.08111  -3.30179  
               3.42554  1.29201  1.7499  
               0.643941  0.357306  -3.94471  
               1.14354  1.02601  0.066126  
               2.30394  1.44261  -1.64876  
               2.67424  -0.622824  0.391136  
               2.10214  -0.780244  0.270976  
               2.37824  1.45531  1.8445  
               4.01324  0.332406  -0.723214  
               3.36614  1.54681  0.229086  
               3.01434  1.50851  -0.892014  
               0.922241  0.047476  -3.87824  
               2.96804  0.646406  2.7332  
               3.78294  1.45601  -0.006234  
               0.743841  0.927906  0.369276  
               0.550941  0.926506  -0.651724  
               1.76244  0.858206  -3.46172  
               0.785441  -0.965424  0.039136  
               3.91144  0.552606  1.2802  
               3.35354  1.54841  -0.400284  
               -0.389559  -1.09546  -2.37598  
               1.95314  1.36711  2.4547  
               3.06834  1.25181  -2.22936  
               0.992941  1.10351  1.1961  
               3.75944  0.923206  1.7074  
               2.99384  1.55211  0.718696  
               2.29644  -0.743554  0.741996  
               -1.76328  -1.19699  -2.67895  
               3.41724  1.48031  -1.07079  
               1.43164  1.32691  2.2069  
               0.675741  -0.955924  -0.695564  
               4.01284  0.625006  -1.18782  
               -1.59216  -0.658304  -3.55404  
               1.94434  0.534006  -3.50588  
               2.74034  1.46731  -0.486764  
               -1.69953  0.733406  -2.23954  
               4.20724  0.885506  0.224376  
               0.104841  -1.03121  -2.12311  
               -0.612259  0.793806  -0.936894  
               1.13134  -0.948084  0.398946  
               2.86844  1.48741  -1.43443  
               2.52234  0.143006  -3.08693  
               3.51024  1.08921  -2.01079  
               2.65534  1.42581  -2.07028  
               2.05184  1.29831  0.066136  
               -1.22366  -0.271774  -3.85248  
               2.58184  0.234906  2.9993  
               2.80834  -0.374994  1.9726  
               2.67954  -0.253214  2.4704  
               3.70054  1.26711  -1.35936  
               4.18094  0.748706  -0.471614  
               2.53554  -0.659604  -0.082264  
               1.73184  -0.727054  -2.03989  
               0.752941  1.24621  -2.42653  
               -1.94028  0.529306  -2.87056  
               1.88274  -0.848684  1.4945  
               -0.019559  0.850306  -0.771854  
               4.08704  0.536406  0.624496  
               -1.31691  0.801306  -1.5683  
               2.73964  -0.508704  -1.40215  
               4.12564  0.432706  -0.049424  
               0.728641  -0.572354  -3.50197  
               -1.2172  -0.839184  -3.42162  
               1.68854  -0.870954  0.546196  
               -0.895229  -0.556384  -3.76185  
               2.26844  -0.709414  -0.535614  
               0.186241  0.812206  0.140706  
               3.29734  0.979906  2.2815  
               3.57684  0.144706  1.4995  
               2.83784  -0.528204  -0.495564  
               1.88994  -0.783134  -0.895424  
               -0.347959  1.01911  -2.8973  
               -0.755329  0.847706  -1.37913  
               3.29094  -0.199454  -1.36257  
               3.28714  1.49091  1.235  
               2.98474  -0.097804  -2.29048  
               1.87254  1.38211  1.8772  
               1.36484  1.21901  -1.35928  
               1.68154  -0.782554  -1.67795  
               -0.059659  -1.06181  -1.68901  
               2.29034  0.381006  -3.34832  
               -0.577459  1.00111  -2.16276  
               1.24374  1.07141  0.684396  
               2.91474  -0.510524  0.930496  
               0.902341  -0.944574  -1.14403  
               -0.839749  0.521606  -3.77508  
               4.04834  1.04161  -0.934924  
               -0.546859  1.00021  -2.57135  
               2.93224  1.52111  0.098186  
               2.42964  0.627306  3.1725  
               2.30684  -0.595294  -1.81834  
               1.00394  1.26361  -2.85987  
               3.59424  1.49321  0.682696  
               3.02984  0.258606  -2.68406  
               2.65464  1.18411  -2.68051  
               -0.821239  -1.13047  -2.68153  
               -1.40257  0.509406  -3.54647  
               -1.45242  -1.24451  -2.4339  
               -0.661849  0.763206  -3.53581  
               1.60514  0.186106  -3.65912  
               3.07644  0.948906  -2.63075  
               0.030141  -1.02532  -0.732464  
               -2.06434  0.056406  -3.46892  
               -0.845689  0.842506  -3.25257  
               1.52744  -0.844614  -1.27382  
               2.52714  -0.614204  -0.945414  
               -0.561259  -1.1377  -1.91915  
               3.25304  1.39421  -1.69358  
               0.639041  0.907006  -0.173444  
               0.530241  1.15521  -1.99466  
               0.333941  1.16761  -2.84807  
            </DataArray>
         </Points> 

         <Cells>
            <DataArray type="Int32" Name="connectivity" NumberOfComponents="1" format="ascii">
               
            </DataArray> 
            <DataArray type="Int32" Name="offsets" NumberOfComponents="1" format="ascii">
               
            </DataArray>
            <DataArray type="UInt8"  Name="types" NumberOfComponents="1" format="ascii">
               
            </DataArray>
         </Cells>
         <PointData Scalars="Data " Vectors="">
            <DataArray type="Float32" Name="Data" NumberOfComponents="1" format="ascii">
               0 0 0 0 0 0 0 0 0 0 0 0 0 0 0 0 0 0 0 0 0 0 0 0 0 0 0 0 0 0 0 0 0 0 0 0 0 0 0 0 0 0 0 0 0 0 0 0 0 0 0 0 0 0 0 0 0 0 0 0 0 0 0 0 0 0 0 0 0 0 0 0 0 0 0 0 0 0 0 0 0 0 0 0 0 0 0 0 0 0 0 0 0 0 0 0 0 0 0 0 0 0 0 0 0 0 0 0 0 0 0 0 0 0 0 0 0 0 0 0 0 0 0 0 0 0 0 0 0 0 0 0 0 0 0 0 0 0 0 0 0 0 0 0 0 0 0 0 0 0 0 0 0 0 0 0 0 0 0 0 0 0 0 0 0 0 0 0 0 0 0 0 0 0 0 0 0 0 0 0 0 0 0 0 0 0 0 0 0 0 0 0 0 0 0 0 0 0 0 0 0 0 0 0 0 0 0 0 0 0 0 0 0 0 0 0 0 0 0 0 0 0 0 0 0 0 0 0 0 0 0 0 0 0 0 0 0 0 0 0 0 0 0 0 0 0 0 0 0 0 0 0 
            </DataArray>
         </PointData> 
      </Piece>
   </UnstructuredGrid> 
</VTKFile>
