<?xml version="1.0"?>
<VTKFile type="UnstructuredGrid" version="0.1" byte_order="LittleEndian">
   <UnstructuredGrid>
      <Piece NumberOfPoints="156" NumberOfCells="0"> 
         <Points> 
            <DataArray type="Float32" Name="Position" NumberOfComponents="3" format="ascii"> 
               -0.110966  -0.506036  -0.322976  
               -0.080752  -0.512432  -0.333099  
               -0.0479718  -0.514321  -0.332696  
               -0.018757  -0.514717  -0.328958  
               0.066234  -0.194316  -0.407968  
               0.091828  -0.242369  -0.400328  
               0.0942264  -0.192774  -0.408758  
               0.115338  -0.286853  -0.38715  
               0.120217  -0.191883  -0.404187  
               0.180864  -0.278912  -0.378504  
               0.236059  -0.388789  -0.334226  
               0.246199  -0.274304  -0.364822  
               0.22863  0.27425  0.180037  
               0.240884  -0.511668  -0.278366  
               0.243675  -0.492043  -0.286236  
               0.273551  -0.160321  -0.372196  
               0.294799  -0.184077  -0.364094  
               0.296572  -0.135491  -0.363154  
               0.303693  -0.51822  -0.236319  
               0.319704  -0.35826  -0.327496  
               0.359398  -0.0702642  -0.328235  
               0.339258  0.247492  0.198373  
               0.345857  -0.501368  -0.253448  
               0.373336  -0.22099  -0.330935  
               0.383881  -0.326597  -0.315635  
               0.394016  -0.218912  -0.321606  
               0.383763  -0.450477  -0.261997  
               0.403398  -0.349647  -0.303257  
               0.414144  -0.217201  -0.310626  
               0.424479  -0.321171  -0.295663  
               0.431168  -0.14193  0.342719  
               0.435655  -0.0915482  -0.288046  
               0.417986  0.254082  0.124722  
               0.402867  0.208486  0.210771  
               0.458132  -0.00169489  0.303658  
               0.462468  0.115492  0.24057  
               0.470651  0.226554  0.0387706  
               0.564322  -0.485052  0.0297713  
               0.524499  -0.107482  -0.231102  
               0.525006  -0.086747  -0.230751  
               0.537463  -0.0839872  -0.220472  
               0.535328  -0.0627709  -0.218575  
               0.559366  -0.0551449  -0.189009  
               0.507625  -0.0578072  0.284076  
               0.514346  -0.0507115  -0.232873  
               0.531368  -0.0425018  -0.21545  
               0.576656  -0.026406  -0.151626  
               0.515622  -0.0334592  0.272531  
               0.504543  -0.0384094  0.283569  
               0.534045  -0.00393103  0.240507  
               0.509895  -0.0134169  0.270484  
               0.527578  0.0170889  0.236501  
               0.583378  0.0413657  -0.0890838  
               0.581604  0.0641424  -0.068057  
               0.511181  0.0594229  -0.190134  
               0.528373  0.0653812  -0.170148  
               0.538563  0.0687988  -0.15456  
               0.571895  0.083342  -0.0665917  
               0.576363  0.0854277  -0.0468419  
               0.577398  0.0875482  0.0305375  
               0.568826  0.0872056  0.104317  
               0.551259  0.0844856  0.16021  
               0.531685  0.087548  -0.149601  
               0.565666  0.10332  -0.0457728  
               0.568694  0.105913  0.0111418  
               0.551391  0.105296  0.138826  
               0.54386  0.103585  0.156515  
               0.557544  0.122566  -0.00761989  
               0.546994  0.123855  0.117291  
               0.485202  0.110742  0.225431  
               0.540079  0.141106  0.0969379  
               0.527451  0.138886  0.148208  
               0.514971  0.139023  -0.121873  
               0.534277  0.155884  0.0265942  
               0.518455  0.155078  0.144152  
               0.489098  0.145909  0.196824  
               0.518194  0.162637  -0.0740027  
               0.508838  0.170177  0.14033  
               0.490342  0.162666  0.180313  
               0.4704  0.156954  0.206883  
               0.511335  0.181926  -0.0405902  
               0.505161  0.186652  0.105812  
               0.476548  0.17287  0.186043  
               0.474673  0.197842  0.15711  
               0.624446  -0.370667  0.189916  
               0.651821  -0.373205  -0.104355  
               0.658149  -0.348687  -0.110639  
               0.648325  -0.395643  0.15307  
               0.671929  -0.339209  0.169832  
               0.677231  -0.316287  0.171934  
               0.68621  -0.295307  -0.0981454  
               0.654277  -0.418005  -0.0582495  
               0.653631  -0.419305  0.118378  
               0.704298  -0.372163  -0.0386323  
               0.716146  -0.376472  0.0288077  
               0.694716  -0.343505  -0.0774084  
               0.720307  -0.350894  0.100604  
               0.69963  -0.343578  0.139777  
               0.683894  -0.336014  0.162959  
               0.695123  -0.317638  -0.0887768  
               0.738442  -0.329043  0.0277337  
               0.734947  -0.327055  0.0777184  
               0.728627  -0.325458  0.102042  
               0.717975  -0.323015  0.123609  
               0.689366  -0.31409  0.163978  
               0.697826  -0.295218  -0.0870687  
               0.726921  -0.300627  -0.0454932  
               0.715218  -0.299147  -0.0641287  
               0.736529  -0.301427  -0.023247  
               0.743479  -0.301709  0.00131042  
               0.74659  -0.301429  0.0275644  
               0.744867  -0.300564  0.0535883  
               0.733782  -0.298628  0.102549  
               0.72332  -0.297531  0.12416  
               0.699821  -0.294164  0.155632  
               0.692561  -0.292043  0.163178  
               0.727935  -0.273844  -0.0447419  
               0.738525  -0.272675  -0.0233645  
               0.746162  -0.271662  0.000817044  
               0.749545  -0.271082  0.0270985  
               0.748295  -0.270831  0.0535794  
               0.743533  -0.270674  0.0788845  
               0.735779  -0.270683  0.102525  
               0.725345  -0.270927  0.123647  
               0.713051  -0.27123  0.140928  
               0.700982  -0.27121  0.153661  
               0.725507  -0.2486  -0.042013  
               0.714012  -0.251851  -0.0593422  
               0.734288  -0.245616  -0.0211431  
               0.745889  -0.241166  0.0266742  
               0.745881  -0.240624  0.0529743  
               0.741079  -0.241164  0.0783205  
               0.732701  -0.242739  0.101307  
               0.721757  -0.245113  0.120958  
               0.709921  -0.247818  0.13687  
               0.719609  -0.226886  -0.0382713  
               0.733512  -0.218697  0.00341519  
               0.736711  -0.216045  0.027191  
               0.736582  -0.215061  0.0521185  
               0.731076  -0.216896  0.0758614  
               -0.416407  0.704449  -0.522191  
               -0.434902  0.698564  -0.494935  
               -0.337899  0.57822  -0.57447  
               -0.324988  0.675822  -0.598583  
               -0.33101  0.687594  -0.594476  
               -0.340805  0.707643  -0.582567  
               -0.327355  0.573586  -0.575664  
               -0.322478  0.595348  -0.585916  
               -0.318649  0.612275  -0.591806  
               -0.313943  0.632323  -0.597624  
               -0.30765  0.654767  -0.603247  
               -0.300814  0.676981  -0.602071  
               -0.0259088  0.702575  -0.125463  
               0.0677062  0.746057  -0.279153  
               0.141928  0.705609  -0.313269  
               0.129467  0.735435  -0.298235  
            </DataArray>
         </Points> 

         <Cells>
            <DataArray type="Int32" Name="connectivity" NumberOfComponents="1" format="ascii">
               
            </DataArray> 
            <DataArray type="Int32" Name="offsets" NumberOfComponents="1" format="ascii">
               
            </DataArray>
            <DataArray type="UInt8"  Name="types" NumberOfComponents="1" format="ascii">
               
            </DataArray>
         </Cells>
         <PointData Scalars="Data " Vectors="">
            <DataArray type="Float32" Name="Data" NumberOfComponents="1" format="ascii">
               0 0 0 0 0 0 0 0 0 0 0 0 0 0 0 0 0 0 0 0 0 0 0 0 0 0 0 0 0 0 0 0 0 0 0 0 0 0 0 0 0 0 0 0 0 0 0 0 0 0 0 0 0 0 0 0 0 0 0 0 0 0 0 0 0 0 0 0 0 0 0 0 0 0 0 0 0 0 0 0 0 0 0 0 0 0 0 0 0 0 0 0 0 0 0 0 0 0 0 0 0 0 0 0 0 0 0 0 0 0 0 0 0 0 0 0 0 0 0 0 0 0 0 0 0 0 0 0 0 0 0 0 0 0 0 0 0 0 0 0 0 0 0 0 0 0 0 0 0 0 0 0 0 0 0 0 
            </DataArray>
         </PointData> 
      </Piece>
   </UnstructuredGrid> 
</VTKFile>
