<?xml version="1.0"?>
<VTKFile type="UnstructuredGrid" version="0.1" byte_order="LittleEndian">
   <UnstructuredGrid>
      <Piece NumberOfPoints="248" NumberOfCells="0"> 
         <Points> 
            <DataArray type="Float32" Name="Position" NumberOfComponents="3" format="ascii"> 
               -3.425  -0.855454  2.2574  
               -1.75672  0.682006  0.807596  
               0.911641  -0.828054  3.0407  
               -3.33802  0.263706  1.3869  
               -1.79623  0.715706  1.215  
               -0.204659  0.658506  3.6278  
               -2.16058  -0.044274  3.332  
               -1.96264  -1.12646  3.0265  
               0.009941  1.06171  2.9213  
               -1.67522  -1.33696  2.4541  
               -1.00807  -1.30591  1.8041  
               -2.53005  0.495106  2.1338  
               -1.9607  -1.39287  1.4923  
               -2.68523  0.550306  -0.706694  
               -2.29771  0.619406  0.586196  
               -3.52132  -0.083864  1.8332  
               -0.360359  -0.889074  3.5349  
               -2.03605  0.250906  3.1818  
               -3.02225  0.471206  -0.260454  
               -3.29537  -0.809574  -2.37146  
               -1.5212  0.796606  2.3291  
               1.36414  -0.949124  1.7578  
               -3.09881  -1.38256  1.6719  
               -1.21444  0.759306  -1.13054  
               -2.77788  -0.951204  -2.76203  
               -3.54771  -0.450094  2.1149  
               -2.33659  0.629806  1.0221  
               0.848541  1.22461  2.0761  
               1.31424  1.28771  2.78  
               -2.70956  -1.28074  -2.22451  
               0.541141  -0.869594  3.2558  
               -0.200059  -1.0535  3.209  
               -3.7565  0.066606  0.776996  
               -3.96736  -1.32836  -0.088464  
               -1.8133  0.726006  -1.79118  
               0.764641  -0.181114  3.7865  
               0.174741  -1.14978  2.1319  
               1.63444  -0.617364  2.9422  
               0.176841  1.02751  1.6812  
               -2.50043  -1.38973  0.049896  
               -2.05103  0.619206  2.4803  
               -3.1251  -0.430314  2.6633  
               -0.736519  -1.24703  1.4234  
               -3.25456  0.137506  -1.89067  
               -0.771749  0.856406  1.5524  
               -2.14009  0.548706  -2.46516  
               -2.1457  0.432206  2.8387  
               -3.65664  -1.32727  -1.20583  
               1.99094  0.889406  3.3019  
               -3.56301  -1.07849  -1.80782  
               -2.62956  -1.43862  -1.05281  
               0.668341  -0.484874  3.6608  
               -2.17137  -1.32987  0.457096  
               -0.542059  -1.08494  -0.932734  
               -3.82375  -0.821974  1.6509  
               -2.107  0.624406  -0.558624  
               1.82644  0.404306  3.5189  
               -0.175859  -1.17754  1.4186  
               0.988841  -0.551814  3.4776  
               -3.67266  0.131006  -0.855224  
               -1.20043  0.745406  1.0817  
               -4.14055  -0.733584  -0.846874  
               -3.09412  -1.12399  -2.22501  
               -3.15  -0.062234  2.4078  
               -0.400659  -1.24141  1.9035  
               1.40064  -0.174024  3.5975  
               -1.63061  0.521006  3.1152  
               -1.91069  0.640406  0.362426  
               -1.09377  -1.17071  -1.12009  
               -2.03833  0.620406  -0.058894  
               -3.68325  -0.062744  -1.42164  
               -0.993219  -0.522244  3.7807  
               -2.14833  -1.32593  -2.17848  
               -3.77788  -1.38744  0.533296  
               -0.112359  -1.08787  0.573196  
               1.25494  0.151606  3.714  
               0.403441  1.16581  2.5154  
               1.23064  -0.844674  2.6785  
               -2.34054  0.614206  -1.49679  
               -1.53113  0.802406  1.9419  
               -3.47446  -1.39411  1.1275  
               -1.09713  -1.2206  1.0325  
               -3.00343  -1.49181  0.041216  
               -4.00379  -0.252654  -0.874304  
               -4.1851  -0.475784  -0.280294  
               -1.04604  0.694406  3.1918  
               -3.89031  -1.15843  1.1046  
               -2.0101  -1.29295  -0.216314  
               1.73804  -0.756064  2.4354  
               -0.069359  0.820406  0.927096  
               -0.635559  0.800206  1.1272  
               -4.22555  -0.669494  0.371026  
               -1.41051  -1.30551  1.426  
               0.167541  1.10241  2.1055  
               -2.30083  0.579706  -1.99556  
               -1.48005  -1.3673  2.0125  
               -1.17728  -1.30615  2.6689  
               -0.553259  -1.22172  2.8222  
               -2.63008  -0.422604  3.088  
               -0.283959  -1.21672  2.425  
               0.830641  -1.0407  1.5208  
               0.576841  -1.0239  0.578496  
               -0.730489  0.730806  0.734796  
               0.769941  0.229206  3.8363  
               2.08924  0.092906  3.3371  
               -3.66993  0.168106  0.252466  
               0.140141  -1.08462  2.9348  
               0.851241  0.607406  3.7121  
               -2.46826  -0.464164  -3.25423  
               -0.203359  0.903606  1.3867  
               1.39264  0.580206  3.6268  
               -2.50513  0.283706  -2.75697  
               0.253041  -1.10969  2.5066  
               0.181941  0.250406  3.9055  
               0.781841  -1.04365  1.9337  
               -3.18543  0.424706  0.220286  
               -3.53181  -1.19528  1.7051  
               -2.09716  -1.34025  -0.863994  
               -1.1351  -1.21946  -1.63504  
               0.260041  -0.803284  3.487  
               -3.86117  -0.444074  1.49  
               0.152141  -1.0998  0.946196  
               0.712741  1.14091  1.6518  
               -2.28538  -1.15936  -2.72513  
               -1.84107  0.723306  1.6461  
               -0.459359  1.01641  2.226  
               0.201841  -1.01767  0.189156  
               -2.84183  0.421906  -1.71921  
               -1.63185  -0.014764  3.5926  
               -1.56114  -1.23049  2.9694  
               -2.52119  0.573706  -0.265734  
               -3.1755  -1.46797  -1.14362  
               -2.03633  -0.890544  3.2913  
               -1.67087  0.685006  -0.876284  
               -2.72218  -1.44559  0.558096  
               -2.14393  -1.2951  2.5406  
               -1.30239  -1.20062  0.643196  
               -0.215759  0.355906  3.8424  
               -0.920159  -1.12464  3.252  
               0.225241  -1.13729  1.7495  
               -0.786199  -1.09582  -0.176074  
               -1.304  0.689606  0.573696  
               1.27524  -0.915394  2.2043  
               -2.12661  0.680406  1.9855  
               0.956941  1.08311  3.28  
               -1.56264  0.657506  -0.367044  
               -0.385059  0.723606  0.010976  
               -3.9231  -0.495494  -1.43201  
               -2.57529  0.574706  0.181276  
               -1.40993  -0.961854  3.4543  
               -1.57392  -1.21595  -0.711444  
               -2.63648  -1.35115  2.159  
               0.762741  -1.0125  2.3731  
               -3.92678  -0.052834  -0.307064  
               0.293941  0.980106  3.3221  
               0.353641  -1.10606  1.3429  
               -2.44674  -0.783074  3.1106  
               -1.76189  -1.29973  0.946196  
               -2.6979  -0.063044  -3.00224  
               0.640841  -0.980814  2.7631  
               -1.05086  -1.13432  0.211156  
               -0.360759  0.853606  3.2537  
               -2.23067  0.634006  -1.03352  
               -0.163959  -1.03902  -0.132964  
               -0.354459  -1.05801  -0.495984  
               -2.66574  0.304606  2.49  
               -0.427759  -1.08172  0.236916  
               -2.09688  -1.40197  2.0063  
               -3.09577  -1.18768  2.2491  
               -4.12813  -1.08637  0.486896  
               -1.63054  -1.29541  -1.86847  
               -0.768859  0.565106  3.5068  
               -2.15114  -1.36628  -1.50532  
               -1.79067  0.713506  -1.31347  
               -2.85619  0.495806  1.1936  
               -0.925189  0.930706  2.5073  
               -0.837619  0.695306  0.283396  
               -2.54855  -1.42436  1.5891  
               -2.65828  -1.41713  -1.64929  
               0.653841  1.17101  2.9536  
               -4.04297  -0.364854  0.835896  
               -3.52649  -1.49498  -0.025274  
               0.943541  1.25031  2.523  
               -4.22385  -0.936654  -0.173444  
               0.290641  -0.136404  3.8742  
               -2.55732  -1.12034  2.7575  
               -3.28754  -1.49365  0.579396  
               -0.594659  -0.048564  3.9113  
               -0.959359  0.694006  -0.198754  
               -3.08951  0.229006  1.9825  
               -2.79465  0.507006  -1.18108  
               -3.92801  -0.950514  -1.34582  
               -1.63696  -1.2742  -1.2694  
               -3.54992  -0.243094  -2.0005  
               -0.985279  0.894306  2.0085  
               -4.04955  -0.204584  0.297226  
               0.371741  0.972006  1.2502  
               -3.04676  0.034546  -2.44362  
               -0.719569  -1.13703  0.634596  
               -3.15854  -1.34978  -1.70609  
               -0.279059  0.747106  0.458496  
               -2.65011  0.030536  2.9227  
               -3.2512  -0.368214  -2.48876  
               -1.66754  -1.22909  0.297986  
               -3.5119  0.271306  -0.265254  
               -2.97461  -0.856614  2.7343  
               -1.09413  0.717706  -0.654994  
               -0.452859  -1.15841  1.0136  
               -1.45016  0.338706  3.47  
               -4.08508  -0.786084  1.0173  
               -2.01337  -0.428744  3.4855  
               -1.58712  -0.584934  3.5992  
               -1.42808  0.758706  2.7986  
               0.046441  -0.556934  3.7843  
               -3.68467  -0.679584  -1.93645  
               -0.686599  0.914906  2.9179  
               -1.41923  0.659306  0.105926  
               -1.31178  0.798806  1.5466  
               1.66684  1.19791  3.0299  
               -2.32103  0.633806  1.4826  
               -2.83646  0.532306  0.656296  
               -0.861149  -1.30677  2.2941  
               -0.311359  -0.327694  3.9056  
               -3.73401  -0.074834  1.2717  
               -1.40706  -1.17622  -0.210924  
               -2.36718  -1.40003  1.0228  
               0.475541  0.734206  3.6816  
               -4.02365  -1.18884  -0.711754  
               1.30354  0.921306  3.447  
               -0.992569  -1.12387  -0.610844  
               -3.33808  0.342506  0.779696  
               -0.231759  1.06271  2.5469  
               -3.10704  -1.51041  -0.552684  
               -3.2232  0.382406  -0.773184  
               -2.74357  0.480606  1.6939  
               -2.58826  -1.43675  -0.474874  
               -3.63821  -1.45876  -0.615664  
               -2.72769  0.347506  -2.2568  
               -1.28399  -0.180894  3.7562  
               -3.28512  0.273906  -1.32817  
               -0.357559  0.968406  1.8373  
               -0.703919  -0.773084  3.6888  
               1.23444  -0.629994  3.2259  
               0.767641  -1.03862  1.0488  
               -2.96386  -1.45858  1.1042  
               1.73624  -0.330294  3.2994  
               -0.916819  0.269506  3.7525  
               -2.92419  -0.517674  -2.83178  
            </DataArray>
         </Points> 

         <Cells>
            <DataArray type="Int32" Name="connectivity" NumberOfComponents="1" format="ascii">
               
            </DataArray> 
            <DataArray type="Int32" Name="offsets" NumberOfComponents="1" format="ascii">
               
            </DataArray>
            <DataArray type="UInt8"  Name="types" NumberOfComponents="1" format="ascii">
               
            </DataArray>
         </Cells>
         <PointData Scalars="Data " Vectors="">
            <DataArray type="Float32" Name="Data" NumberOfComponents="1" format="ascii">
               0 0 0 0 0 0 0 0 0 0 0 0 0 0 0 0 0 0 0 0 0 0 0 0 0 0 0 0 0 0 0 0 0 0 0 0 0 0 0 0 0 0 0 0 0 0 0 0 0 0 0 0 0 0 0 0 0 0 0 0 0 0 0 0 0 0 0 0 0 0 0 0 0 0 0 0 0 0 0 0 0 0 0 0 0 0 0 0 0 0 0 0 0 0 0 0 0 0 0 0 0 0 0 0 0 0 0 0 0 0 0 0 0 0 0 0 0 0 0 0 0 0 0 0 0 0 0 0 0 0 0 0 0 0 0 0 0 0 0 0 0 0 0 0 0 0 0 0 0 0 0 0 0 0 0 0 0 0 0 0 0 0 0 0 0 0 0 0 0 0 0 0 0 0 0 0 0 0 0 0 0 0 0 0 0 0 0 0 0 0 0 0 0 0 0 0 0 0 0 0 0 0 0 0 0 0 0 0 0 0 0 0 0 0 0 0 0 0 0 0 0 0 0 0 0 0 0 0 0 0 0 0 0 0 0 0 0 0 0 0 0 0 0 0 0 0 0 0 
            </DataArray>
         </PointData> 
      </Piece>
   </UnstructuredGrid> 
</VTKFile>
