<?xml version="1.0"?>
<VTKFile type="UnstructuredGrid" version="0.1" byte_order="LittleEndian">
   <UnstructuredGrid>
      <Piece NumberOfPoints="32" NumberOfCells="0" >
         <Points>
            <DataArray type="Float64" Name="Position" NumberOfComponents="3" format="ascii">
               0  -0.005  0
               0  0.005  0
               0.00714286  -0.01  0
               0.0214286  -0.01  0
               0.0357143  -0.01  0
               0.05  -0.01  0
               0.0642857  -0.01  0
               0.0785714  -0.01  0
               0.0928571  -0.01  0
               0.107143  -0.01  0
               0.121429  -0.01  0
               0.135714  -0.01  0
               0.15  -0.01  0
               0.164286  -0.01  0
               0.178571  -0.01  0
               0.192857  -0.01  0
               0.00714286  0.01  0
               0.0214286  0.01  0
               0.0357143  0.01  0
               0.05  0.01  0
               0.0642857  0.01  0
               0.0785714  0.01  0
               0.0928571  0.01  0
               0.107143  0.01  0
               0.121429  0.01  0
               0.135714  0.01  0
               0.15  0.01  0
               0.164286  0.01  0
               0.178571  0.01  0
               0.192857  0.01  0
               0.2  -0.005  0
               0.2  0.005  0
            </DataArray>
         </Points>

         <Cells>
            <DataArray type="Int32" Name="connectivity" NumberOfComponents="1" format="ascii">

            </DataArray>
            <DataArray type="Int32" Name="offsets" NumberOfComponents="1" format="ascii">

            </DataArray>
            <DataArray type="UInt8"  Name="types" NumberOfComponents="1" format="ascii">

            </DataArray>
         </Cells>
         <PointData Scalars="Rank " Vectors="Force Displacement ">
            <DataArray type="UInt32" Name="Rank" NumberOfComponents="1" format="ascii">
               0 0 0 0 0 0 0 0 0 0 0 0 0 0 0 0 0 0 0 0 0 0 0 0 0 0 0 0 0 0 0 0
            </DataArray>
            <DataArray type="Float64" Name="Force" NumberOfComponents="3" format="ascii">
               2.33787 0.0176547 0.0  2.34497 -0.0215011 0.0  0.447391 0.522153 0.0  0.321321 0.408082 0.0  0.239597 0.562105 0.0  0.221768 0.658219 0.0  0.223731 0.683062 0.0  0.2319 0.690314 0.0  0.240033 0.683628 0.0  0.24818 0.649813 0.0  0.255511 0.596092 0.0  0.262502 0.528945 0.0  0.270477 0.449205 0.0  0.280973 0.355381 0.0  0.297011 0.243569 0.0  0.307601 0.117856 0.0  0.452956 -0.605201 0.0  0.32681 -0.476777 0.0  0.245321 -0.610537 0.0  0.226919 -0.691573 0.0  0.227766 -0.707198 0.0  0.235014 -0.708904 0.0  0.242994 -0.697757 0.0  0.250696 -0.660164 0.0  0.257671 -0.60316 0.0  0.264356 -0.533133 0.0  0.271991 -0.451148 0.0  0.282085 -0.355649 0.0  0.297661 -0.242711 0.0  0.307571 -0.116498 0.0  0.301869 -0.0184142 0.0  0.299088 0.0175387 0.0
            </DataArray>
            <DataArray type="Float64" Name="Displacement" NumberOfComponents="3" format="ascii">
               -6.63212e-08 0 0.0  6.63212e-08 0 0.0  -1.32643e-07 -9.47437e-08 0.0  -1.32644e-07 -2.84233e-07 0.0  -1.32646e-07 -4.73722e-07 0.0  -1.32647e-07 -6.63211e-07 0.0  -1.32648e-07 -8.527e-07 0.0  -1.32649e-07 -1.04219e-06 0.0  -1.32651e-07 -1.23168e-06 0.0  -1.32652e-07 -1.42117e-06 0.0  -1.32653e-07 -1.61066e-06 0.0  -1.32654e-07 -1.80015e-06 0.0  -1.32656e-07 -1.98964e-06 0.0  -1.32657e-07 -2.17912e-06 0.0  -1.32658e-07 -2.36861e-06 0.0  -1.32659e-07 -2.5581e-06 0.0  1.32642e-07 -9.47455e-08 0.0  1.32641e-07 -2.84235e-07 0.0  1.32639e-07 -4.73724e-07 0.0  1.32638e-07 -6.63213e-07 0.0  1.32637e-07 -8.52702e-07 0.0  1.32635e-07 -1.04219e-06 0.0  1.32634e-07 -1.23168e-06 0.0  1.32633e-07 -1.42117e-06 0.0  1.32632e-07 -1.61066e-06 0.0  1.3263e-07 -1.80015e-06 0.0  1.32629e-07 -1.98964e-06 0.0  1.32628e-07 -2.17913e-06 0.0  1.32627e-07 -2.36862e-06 0.0  1.32625e-07 -2.5581e-06 0.0  -6.63388e-08 -2.65285e-06 0.0  6.63036e-08 -2.65285e-06 0.0
            </DataArray>
         </PointData>
      </Piece>
   </UnstructuredGrid>
</VTKFile>
