<?xml version="1.0"?>
<VTKFile type="UnstructuredGrid" version="0.1" byte_order="LittleEndian">
   <UnstructuredGrid>
      <Piece NumberOfPoints="32" NumberOfCells="0" >
         <Points>
            <DataArray type="Float64" Name="Position" NumberOfComponents="3" format="ascii">
               0  -0.005  0
               0  0.005  0
               0.00714286  -0.01  0
               0.0214286  -0.01  0
               0.0357143  -0.01  0
               0.05  -0.01  0
               0.0642857  -0.01  0
               0.0785714  -0.01  0
               0.0928571  -0.01  0
               0.107143  -0.01  0
               0.121429  -0.01  0
               0.135714  -0.01  0
               0.15  -0.01  0
               0.164286  -0.01  0
               0.178571  -0.01  0
               0.192857  -0.01  0
               0.00714286  0.01  0
               0.0214286  0.01  0
               0.0357143  0.01  0
               0.05  0.01  0
               0.0642857  0.01  0
               0.0785714  0.01  0
               0.0928571  0.01  0
               0.107143  0.01  0
               0.121429  0.01  0
               0.135714  0.01  0
               0.15  0.01  0
               0.164286  0.01  0
               0.178571  0.01  0
               0.192857  0.01  0
               0.2  -0.005  0
               0.2  0.005  0
            </DataArray>
         </Points>

         <Cells>
            <DataArray type="Int32" Name="connectivity" NumberOfComponents="1" format="ascii">

            </DataArray>
            <DataArray type="Int32" Name="offsets" NumberOfComponents="1" format="ascii">

            </DataArray>
            <DataArray type="UInt8"  Name="types" NumberOfComponents="1" format="ascii">

            </DataArray>
         </Cells>
         <PointData Scalars="Rank " Vectors="Force Displacement ">
            <DataArray type="UInt32" Name="Rank" NumberOfComponents="1" format="ascii">
               0 0 0 0 0 0 0 0 0 0 0 0 0 0 0 0 0 0 0 0 0 0 0 0 0 0 0 0 0 0 0 0
            </DataArray>
            <DataArray type="Float64" Name="Force" NumberOfComponents="3" format="ascii">
               2.08676 0.0200311 0.0  2.10217 -0.0274478 0.0  0.433754 0.156485 0.0  0.298335 0.0662749 0.0  0.218174 0.182601 0.0  0.192548 0.233693 0.0  0.178501 0.240971 0.0  0.175225 0.247121 0.0  0.176825 0.240824 0.0  0.181891 0.222466 0.0  0.18849 0.193048 0.0  0.196491 0.153252 0.0  0.205866 0.103131 0.0  0.217122 0.0411024 0.0  0.231476 -0.0357013 0.0  0.239274 -0.117755 0.0  0.444716 -0.330801 0.0  0.311419 -0.219494 0.0  0.229037 -0.299779 0.0  0.201659 -0.332799 0.0  0.187232 -0.324562 0.0  0.181902 -0.312488 0.0  0.182471 -0.295766 0.0  0.18693 -0.270506 0.0  0.193288 -0.234902 0.0  0.201101 -0.188957 0.0  0.210323 -0.132541 0.0  0.221458 -0.0638603 0.0  0.235702 0.0202329 0.0  0.2435 0.110428 0.0  0.313505 -0.0192155 0.0  0.317125 0.0201303 0.0
            </DataArray>
            <DataArray type="Float64" Name="Displacement" NumberOfComponents="3" format="ascii">
               1.83707e-06 0 0.0  -1.83707e-06 0 0.0  3.67366e-06 2.62506e-06 0.0  3.67269e-06 7.87383e-06 0.0  3.67173e-06 1.31226e-05 0.0  3.67076e-06 1.83714e-05 0.0  3.6698e-06 2.36201e-05 0.0  3.66883e-06 2.88689e-05 0.0  3.66787e-06 3.41177e-05 0.0  3.66691e-06 3.93664e-05 0.0  3.66594e-06 4.46152e-05 0.0  3.66498e-06 4.9864e-05 0.0  3.66401e-06 5.51127e-05 0.0  3.66305e-06 6.03615e-05 0.0  3.66208e-06 6.56103e-05 0.0  3.66112e-06 7.0859e-05 0.0  -3.67462e-06 2.62371e-06 0.0  -3.67558e-06 7.87248e-06 0.0  -3.67655e-06 1.31212e-05 0.0  -3.67751e-06 1.837e-05 0.0  -3.67848e-06 2.36188e-05 0.0  -3.67944e-06 2.88676e-05 0.0  -3.68041e-06 3.41163e-05 0.0  -3.68137e-06 3.93651e-05 0.0  -3.68233e-06 4.46139e-05 0.0  -3.6833e-06 4.98626e-05 0.0  -3.68426e-06 5.51114e-05 0.0  -3.68523e-06 6.03602e-05 0.0  -3.68619e-06 6.56089e-05 0.0  -3.68716e-06 7.08577e-05 0.0  1.82357e-06 7.34831e-05 0.0  -1.85057e-06 7.34824e-05 0.0
            </DataArray>
         </PointData>
      </Piece>
   </UnstructuredGrid>
</VTKFile>
