<?xml version="1.0"?>
<VTKFile type="UnstructuredGrid" version="0.1" byte_order="LittleEndian">
   <UnstructuredGrid>
      <Piece NumberOfPoints="32" NumberOfCells="0" >
         <Points>
            <DataArray type="Float64" Name="Position" NumberOfComponents="3" format="ascii">
               0  -0.005  0
               0  0.005  0
               0.00714286  -0.01  0
               0.0214286  -0.01  0
               0.0357143  -0.01  0
               0.05  -0.01  0
               0.0642857  -0.01  0
               0.0785714  -0.01  0
               0.0928571  -0.01  0
               0.107143  -0.01  0
               0.121429  -0.01  0
               0.135714  -0.01  0
               0.15  -0.01  0
               0.164286  -0.01  0
               0.178571  -0.01  0
               0.192857  -0.01  0
               0.00714286  0.01  0
               0.0214286  0.01  0
               0.0357143  0.01  0
               0.05  0.01  0
               0.0642857  0.01  0
               0.0785714  0.01  0
               0.0928571  0.01  0
               0.107143  0.01  0
               0.121429  0.01  0
               0.135714  0.01  0
               0.15  0.01  0
               0.164286  0.01  0
               0.178571  0.01  0
               0.192857  0.01  0
               0.2  -0.005  0
               0.2  0.005  0
            </DataArray>
         </Points>

         <Cells>
            <DataArray type="Int32" Name="connectivity" NumberOfComponents="1" format="ascii">

            </DataArray>
            <DataArray type="Int32" Name="offsets" NumberOfComponents="1" format="ascii">

            </DataArray>
            <DataArray type="UInt8"  Name="types" NumberOfComponents="1" format="ascii">

            </DataArray>
         </Cells>
         <PointData Scalars="Rank " Vectors="Force Displacement ">
            <DataArray type="UInt32" Name="Rank" NumberOfComponents="1" format="ascii">
               0 0 0 0 0 0 0 0 0 0 0 0 0 0 0 0 0 0 0 0 0 0 0 0 0 0 0 0 0 0 0 0
            </DataArray>
            <DataArray type="Float64" Name="Force" NumberOfComponents="3" format="ascii">
               2.4704 0.0103563 0.0  2.47623 -0.0131132 0.0  0.467496 0.707295 0.0  0.352181 0.659928 0.0  0.272942 0.889487 0.0  0.263273 0.991035 0.0  0.270957 0.989203 0.0  0.279595 0.97438 0.0  0.286236 0.9428 0.0  0.291861 0.888499 0.0  0.297113 0.817441 0.0  0.302574 0.734435 0.0  0.309407 0.639832 0.0  0.319137 0.530531 0.0  0.336076 0.400258 0.0  0.348053 0.240381 0.0  0.471038 -0.772256 0.0  0.35593 -0.711887 0.0  0.277218 -0.925248 0.0  0.266749 -1.0148 0.0  0.273972 -1.00638 0.0  0.282044 -0.986037 0.0  0.288425 -0.950904 0.0  0.29383 -0.893572 0.0  0.298857 -0.819953 0.0  0.304062 -0.734899 0.0  0.310581 -0.638758 0.0  0.31992 -0.528479 0.0  0.336339 -0.397921 0.0  0.347607 -0.238898 0.0  0.352356 -0.0173365 0.0  0.347613 0.0165112 0.0
            </DataArray>
            <DataArray type="Float64" Name="Displacement" NumberOfComponents="3" format="ascii">
               -1.29384e-07 0 0.0  1.29384e-07 0 0.0  -2.58769e-07 -1.8483e-07 0.0  -2.58774e-07 -5.54498e-07 0.0  -2.58779e-07 -9.24165e-07 0.0  -2.58784e-07 -1.29383e-06 0.0  -2.58789e-07 -1.6635e-06 0.0  -2.58793e-07 -2.03317e-06 0.0  -2.58798e-07 -2.40283e-06 0.0  -2.58803e-07 -2.7725e-06 0.0  -2.58808e-07 -3.14217e-06 0.0  -2.58813e-07 -3.51184e-06 0.0  -2.58817e-07 -3.8815e-06 0.0  -2.58822e-07 -4.25117e-06 0.0  -2.58827e-07 -4.62084e-06 0.0  -2.58832e-07 -4.9905e-06 0.0  2.58765e-07 -1.84837e-07 0.0  2.5876e-07 -5.54504e-07 0.0  2.58755e-07 -9.24171e-07 0.0  2.5875e-07 -1.29384e-06 0.0  2.58746e-07 -1.66351e-06 0.0  2.58741e-07 -2.03317e-06 0.0  2.58736e-07 -2.40284e-06 0.0  2.58731e-07 -2.77251e-06 0.0  2.58726e-07 -3.14217e-06 0.0  2.58722e-07 -3.51184e-06 0.0  2.58717e-07 -3.88151e-06 0.0  2.58712e-07 -4.25118e-06 0.0  2.58707e-07 -4.62084e-06 0.0  2.58702e-07 -4.99051e-06 0.0  -1.2945e-07 -5.17534e-06 0.0  1.29317e-07 -5.17534e-06 0.0
            </DataArray>
         </PointData>
      </Piece>
   </UnstructuredGrid>
</VTKFile>
