<?xml version="1.0"?>
<VTKFile type="UnstructuredGrid" version="0.1" byte_order="LittleEndian">
   <UnstructuredGrid>
      <Piece NumberOfPoints="32" NumberOfCells="0" >
         <Points>
            <DataArray type="Float64" Name="Position" NumberOfComponents="3" format="ascii">
               0  -0.005  0
               0  0.005  0
               0.00714286  -0.01  0
               0.0214286  -0.01  0
               0.0357143  -0.01  0
               0.05  -0.01  0
               0.0642857  -0.01  0
               0.0785714  -0.01  0
               0.0928571  -0.01  0
               0.107143  -0.01  0
               0.121429  -0.01  0
               0.135714  -0.01  0
               0.15  -0.01  0
               0.164286  -0.01  0
               0.178571  -0.01  0
               0.192857  -0.01  0
               0.00714286  0.01  0
               0.0214286  0.01  0
               0.0357143  0.01  0
               0.05  0.01  0
               0.0642857  0.01  0
               0.0785714  0.01  0
               0.0928571  0.01  0
               0.107143  0.01  0
               0.121429  0.01  0
               0.135714  0.01  0
               0.15  0.01  0
               0.164286  0.01  0
               0.178571  0.01  0
               0.192857  0.01  0
               0.2  -0.005  0
               0.2  0.005  0
            </DataArray>
         </Points>

         <Cells>
            <DataArray type="Int32" Name="connectivity" NumberOfComponents="1" format="ascii">

            </DataArray>
            <DataArray type="Int32" Name="offsets" NumberOfComponents="1" format="ascii">

            </DataArray>
            <DataArray type="UInt8"  Name="types" NumberOfComponents="1" format="ascii">

            </DataArray>
         </Cells>
         <PointData Scalars="Rank " Vectors="Force Displacement ">
            <DataArray type="UInt32" Name="Rank" NumberOfComponents="1" format="ascii">
               0 0 0 0 0 0 0 0 0 0 0 0 0 0 0 0 0 0 0 0 0 0 0 0 0 0 0 0 0 0 0 0
            </DataArray>
            <DataArray type="Float64" Name="Force" NumberOfComponents="3" format="ascii">
               2.11476 0.0202189 0.0  2.12821 -0.0270695 0.0  0.435228 0.20991 0.0  0.300477 0.118987 0.0  0.220209 0.224893 0.0  0.191916 0.274054 0.0  0.180661 0.292654 0.0  0.178591 0.299677 0.0  0.182257 0.296499 0.0  0.189068 0.282123 0.0  0.197072 0.254144 0.0  0.20601 0.213262 0.0  0.215817 0.159522 0.0  0.227335 0.0925734 0.0  0.24209 0.00939097 0.0  0.250333 -0.0802768 0.0  0.444881 -0.361188 0.0  0.312241 -0.252972 0.0  0.230133 -0.331236 0.0  0.201527 -0.35507 0.0  0.186811 -0.34666 0.0  0.183699 -0.344722 0.0  0.186805 -0.33756 0.0  0.193262 -0.318495 0.0  0.201101 -0.285359 0.0  0.209804 -0.239186 0.0  0.21936 -0.180159 0.0  0.230612 -0.107898 0.0  0.245079 -0.0193223 0.0  0.253044 0.0759251 0.0  0.306884 -0.0196803 0.0  0.308822 0.0199908 0.0
            </DataArray>
            <DataArray type="Float64" Name="Displacement" NumberOfComponents="3" format="ascii">
               9.98036e-07 0 0.0  -9.98036e-07 0 0.0  1.99593e-06 1.42597e-06 0.0  1.99565e-06 4.2775e-06 0.0  1.99536e-06 7.12903e-06 0.0  1.99508e-06 9.98056e-06 0.0  1.99479e-06 1.28321e-05 0.0  1.99451e-06 1.56836e-05 0.0  1.99422e-06 1.85352e-05 0.0  1.99394e-06 2.13867e-05 0.0  1.99365e-06 2.42382e-05 0.0  1.99337e-06 2.70898e-05 0.0  1.99308e-06 2.99413e-05 0.0  1.9928e-06 3.27928e-05 0.0  1.99252e-06 3.56444e-05 0.0  1.99223e-06 3.84959e-05 0.0  -1.99622e-06 1.42557e-06 0.0  -1.9965e-06 4.2771e-06 0.0  -1.99678e-06 7.12863e-06 0.0  -1.99707e-06 9.98016e-06 0.0  -1.99735e-06 1.28317e-05 0.0  -1.99764e-06 1.56832e-05 0.0  -1.99792e-06 1.85348e-05 0.0  -1.99821e-06 2.13863e-05 0.0  -1.99849e-06 2.42378e-05 0.0  -1.99878e-06 2.70894e-05 0.0  -1.99906e-06 2.99409e-05 0.0  -1.99935e-06 3.27924e-05 0.0  -1.99963e-06 3.5644e-05 0.0  -1.99991e-06 3.84955e-05 0.0  9.94052e-07 3.99216e-05 0.0  -1.00202e-06 3.99214e-05 0.0
            </DataArray>
         </PointData>
      </Piece>
   </UnstructuredGrid>
</VTKFile>
