<?xml version="1.0"?>
<VTKFile type="UnstructuredGrid" version="0.1" byte_order="LittleEndian">
   <UnstructuredGrid>
      <Piece NumberOfPoints="32" NumberOfCells="0" >
         <Points>
            <DataArray type="Float64" Name="Position" NumberOfComponents="3" format="ascii">
               0  -0.005  0
               0  0.005  0
               0.00714286  -0.01  0
               0.0214286  -0.01  0
               0.0357143  -0.01  0
               0.05  -0.01  0
               0.0642857  -0.01  0
               0.0785714  -0.01  0
               0.0928571  -0.01  0
               0.107143  -0.01  0
               0.121429  -0.01  0
               0.135714  -0.01  0
               0.15  -0.01  0
               0.164286  -0.01  0
               0.178571  -0.01  0
               0.192857  -0.01  0
               0.00714286  0.01  0
               0.0214286  0.01  0
               0.0357143  0.01  0
               0.05  0.01  0
               0.0642857  0.01  0
               0.0785714  0.01  0
               0.0928571  0.01  0
               0.107143  0.01  0
               0.121429  0.01  0
               0.135714  0.01  0
               0.15  0.01  0
               0.164286  0.01  0
               0.178571  0.01  0
               0.192857  0.01  0
               0.2  -0.005  0
               0.2  0.005  0
            </DataArray>
         </Points>

         <Cells>
            <DataArray type="Int32" Name="connectivity" NumberOfComponents="1" format="ascii">

            </DataArray>
            <DataArray type="Int32" Name="offsets" NumberOfComponents="1" format="ascii">

            </DataArray>
            <DataArray type="UInt8"  Name="types" NumberOfComponents="1" format="ascii">

            </DataArray>
         </Cells>
         <PointData Scalars="Rank " Vectors="Force Displacement ">
            <DataArray type="UInt32" Name="Rank" NumberOfComponents="1" format="ascii">
               0 0 0 0 0 0 0 0 0 0 0 0 0 0 0 0 0 0 0 0 0 0 0 0 0 0 0 0 0 0 0 0
            </DataArray>
            <DataArray type="Float64" Name="Force" NumberOfComponents="3" format="ascii">
               2.23002 0.0199313 0.0  2.23919 -0.0249124 0.0  0.441734 0.385826 0.0  0.308061 0.277911 0.0  0.226629 0.388505 0.0  0.201777 0.461535 0.0  0.197892 0.48898 0.0  0.202966 0.502242 0.0  0.211075 0.504504 0.0  0.219921 0.485362 0.0  0.228571 0.445276 0.0  0.23687 0.3902 0.0  0.245822 0.321731 0.0  0.256863 0.239015 0.0  0.272253 0.138777 0.0  0.281588 0.029782 0.0  0.448897 -0.489933 0.0  0.316698 -0.366521 0.0  0.234564 -0.444659 0.0  0.20505 -0.490184 0.0  0.202557 -0.517266 0.0  0.206713 -0.529339 0.0  0.21453 -0.52708 0.0  0.223039 -0.50327 0.0  0.2313 -0.458995 0.0  0.239256 -0.40015 0.0  0.247853 -0.328453 0.0  0.258502 -0.243057 0.0  0.273438 -0.140588 0.0  0.282214 -0.0297573 0.0  0.292997 -0.0194383 0.0  0.291969 0.0188551 0.0
            </DataArray>
            <DataArray type="Float64" Name="Displacement" NumberOfComponents="3" format="ascii">
               1.08843e-07 0 0.0  -1.08843e-07 0 0.0  2.17684e-07 1.55492e-07 0.0  2.1768e-07 4.66471e-07 0.0  2.17677e-07 7.7745e-07 0.0  2.17674e-07 1.08843e-06 0.0  2.1767e-07 1.39941e-06 0.0  2.17667e-07 1.71039e-06 0.0  2.17663e-07 2.02137e-06 0.0  2.1766e-07 2.33235e-06 0.0  2.17657e-07 2.64333e-06 0.0  2.17653e-07 2.9543e-06 0.0  2.1765e-07 3.26528e-06 0.0  2.17647e-07 3.57626e-06 0.0  2.17643e-07 3.88724e-06 0.0  2.1764e-07 4.19822e-06 0.0  -2.17687e-07 1.55487e-07 0.0  -2.17691e-07 4.66466e-07 0.0  -2.17694e-07 7.77446e-07 0.0  -2.17697e-07 1.08842e-06 0.0  -2.17701e-07 1.3994e-06 0.0  -2.17704e-07 1.71038e-06 0.0  -2.17707e-07 2.02136e-06 0.0  -2.17711e-07 2.33234e-06 0.0  -2.17714e-07 2.64332e-06 0.0  -2.17718e-07 2.9543e-06 0.0  -2.17721e-07 3.26528e-06 0.0  -2.17724e-07 3.57626e-06 0.0  -2.17728e-07 3.88724e-06 0.0  -2.17731e-07 4.19822e-06 0.0  1.08795e-07 4.35371e-06 0.0  -1.0889e-07 4.35371e-06 0.0
            </DataArray>
         </PointData>
      </Piece>
   </UnstructuredGrid>
</VTKFile>
