<?xml version="1.0"?>
<VTKFile type="UnstructuredGrid" version="0.1" byte_order="LittleEndian">
   <UnstructuredGrid>
      <Piece NumberOfPoints="32" NumberOfCells="0" >
         <Points>
            <DataArray type="Float64" Name="Position" NumberOfComponents="3" format="ascii">
               0  -0.005  0
               0  0.005  0
               0.00714286  -0.01  0
               0.0214286  -0.01  0
               0.0357143  -0.01  0
               0.05  -0.01  0
               0.0642857  -0.01  0
               0.0785714  -0.01  0
               0.0928571  -0.01  0
               0.107143  -0.01  0
               0.121429  -0.01  0
               0.135714  -0.01  0
               0.15  -0.01  0
               0.164286  -0.01  0
               0.178571  -0.01  0
               0.192857  -0.01  0
               0.00714286  0.01  0
               0.0214286  0.01  0
               0.0357143  0.01  0
               0.05  0.01  0
               0.0642857  0.01  0
               0.0785714  0.01  0
               0.0928571  0.01  0
               0.107143  0.01  0
               0.121429  0.01  0
               0.135714  0.01  0
               0.15  0.01  0
               0.164286  0.01  0
               0.178571  0.01  0
               0.192857  0.01  0
               0.2  -0.005  0
               0.2  0.005  0
            </DataArray>
         </Points>

         <Cells>
            <DataArray type="Int32" Name="connectivity" NumberOfComponents="1" format="ascii">

            </DataArray>
            <DataArray type="Int32" Name="offsets" NumberOfComponents="1" format="ascii">

            </DataArray>
            <DataArray type="UInt8"  Name="types" NumberOfComponents="1" format="ascii">

            </DataArray>
         </Cells>
         <PointData Scalars="Rank " Vectors="Force Displacement ">
            <DataArray type="UInt32" Name="Rank" NumberOfComponents="1" format="ascii">
               0 0 0 0 0 0 0 0 0 0 0 0 0 0 0 0 0 0 0 0 0 0 0 0 0 0 0 0 0 0 0 0
            </DataArray>
            <DataArray type="Float64" Name="Force" NumberOfComponents="3" format="ascii">
               2.05494 0.019783 0.0  2.07429 -0.027611 0.0  0.43293 0.0861433 0.0  0.295646 -0.00314185 0.0  0.213799 0.126627 0.0  0.191495 0.189129 0.0  0.177529 0.187875 0.0  0.17322 0.18953 0.0  0.173483 0.180875 0.0  0.176361 0.156998 0.0  0.180688 0.122102 0.0  0.186233 0.0786987 0.0  0.193552 0.0276778 0.0  0.203129 -0.0317309 0.0  0.215858 -0.102118 0.0  0.222201 -0.174018 0.0  0.445741 -0.304019 0.0  0.31258 -0.191238 0.0  0.229289 -0.266459 0.0  0.200283 -0.298626 0.0  0.18828 -0.297146 0.0  0.18218 -0.283586 0.0  0.181442 -0.261033 0.0  0.183438 -0.227024 0.0  0.18731 -0.183607 0.0  0.192676 -0.132148 0.0  0.200002 -0.0728117 0.0  0.209781 -0.00423168 0.0  0.222894 0.0767767 0.0  0.229982 0.161495 0.0  0.324234 -0.0178598 0.0  0.331416 0.0202628 0.0
            </DataArray>
            <DataArray type="Float64" Name="Displacement" NumberOfComponents="3" format="ascii">
               4.50389e-06 2.02851e-09 0.0  -4.50389e-06 -2.02851e-09 0.0  9.00489e-06 6.43819e-06 0.0  8.99909e-06 1.93065e-05 0.0  8.9933e-06 3.21747e-05 0.0  8.9875e-06 4.5043e-05 0.0  8.98171e-06 5.79113e-05 0.0  8.97591e-06 7.07795e-05 0.0  8.97012e-06 8.36478e-05 0.0  8.96432e-06 9.65161e-05 0.0  8.95852e-06 0.000109384 0.0  8.95273e-06 0.000122253 0.0  8.94693e-06 0.000135121 0.0  8.94114e-06 0.000147989 0.0  8.93534e-06 0.000160857 0.0  8.92955e-06 0.000173726 0.0  -9.01069e-06 6.43008e-06 0.0  -9.01648e-06 1.92983e-05 0.0  -9.02228e-06 3.21666e-05 0.0  -9.02807e-06 4.50349e-05 0.0  -9.03387e-06 5.79032e-05 0.0  -9.03966e-06 7.07714e-05 0.0  -9.04546e-06 8.36397e-05 0.0  -9.05126e-06 9.6508e-05 0.0  -9.05705e-06 0.000109376 0.0  -9.06285e-06 0.000122244 0.0  -9.06864e-06 0.000135113 0.0  -9.07444e-06 0.000147981 0.0  -9.08023e-06 0.000160849 0.0  -9.08603e-06 0.000173718 0.0  4.42275e-06 0.000180158 0.0  -4.58503e-06 0.000180154 0.0
            </DataArray>
         </PointData>
      </Piece>
   </UnstructuredGrid>
</VTKFile>
