<?xml version="1.0"?>
<VTKFile type="UnstructuredGrid" version="0.1" byte_order="LittleEndian">
   <UnstructuredGrid>
      <Piece NumberOfPoints="32" NumberOfCells="0" >
         <Points>
            <DataArray type="Float64" Name="Position" NumberOfComponents="3" format="ascii">
               0  -0.005  0
               0  0.005  0
               0.00714286  -0.01  0
               0.0214286  -0.01  0
               0.0357143  -0.01  0
               0.05  -0.01  0
               0.0642857  -0.01  0
               0.0785714  -0.01  0
               0.0928571  -0.01  0
               0.107143  -0.01  0
               0.121429  -0.01  0
               0.135714  -0.01  0
               0.15  -0.01  0
               0.164286  -0.01  0
               0.178571  -0.01  0
               0.192857  -0.01  0
               0.00714286  0.01  0
               0.0214286  0.01  0
               0.0357143  0.01  0
               0.05  0.01  0
               0.0642857  0.01  0
               0.0785714  0.01  0
               0.0928571  0.01  0
               0.107143  0.01  0
               0.121429  0.01  0
               0.135714  0.01  0
               0.15  0.01  0
               0.164286  0.01  0
               0.178571  0.01  0
               0.192857  0.01  0
               0.2  -0.005  0
               0.2  0.005  0
            </DataArray>
         </Points>

         <Cells>
            <DataArray type="Int32" Name="connectivity" NumberOfComponents="1" format="ascii">

            </DataArray>
            <DataArray type="Int32" Name="offsets" NumberOfComponents="1" format="ascii">

            </DataArray>
            <DataArray type="UInt8"  Name="types" NumberOfComponents="1" format="ascii">

            </DataArray>
         </Cells>
         <PointData Scalars="Rank " Vectors="Force Displacement ">
            <DataArray type="UInt32" Name="Rank" NumberOfComponents="1" format="ascii">
               0 0 0 0 0 0 0 0 0 0 0 0 0 0 0 0 0 0 0 0 0 0 0 0 0 0 0 0 0 0 0 0
            </DataArray>
            <DataArray type="Float64" Name="Force" NumberOfComponents="3" format="ascii">
               2.15845 0.0203216 0.0  2.16982 -0.0263426 0.0  0.438029 0.283846 0.0  0.303175 0.188135 0.0  0.222236 0.287531 0.0  0.192735 0.343394 0.0  0.185909 0.370909 0.0  0.186735 0.380071 0.0  0.192959 0.380542 0.0  0.201165 0.367228 0.0  0.210033 0.336426 0.0  0.219082 0.289968 0.0  0.228706 0.230017 0.0  0.240111 0.156044 0.0  0.255151 0.0650037 0.0  0.263792 -0.0333011 0.0  0.446389 -0.411078 0.0  0.31403 -0.300546 0.0  0.231727 -0.370129 0.0  0.200597 -0.392089 0.0  0.189712 -0.401096 0.0  0.190768 -0.411561 0.0  0.196619 -0.411106 0.0  0.204765 -0.393758 0.0  0.213397 -0.358277 0.0  0.222132 -0.307259 0.0  0.231426 -0.24301 0.0  0.242477 -0.165088 0.0  0.257124 -0.0703863 0.0  0.265312 0.0314084 0.0  0.299176 -0.0198192 0.0  0.29966 0.0196432 0.0
            </DataArray>
            <DataArray type="Float64" Name="Displacement" NumberOfComponents="3" format="ascii">
               4.42526e-07 0 0.0  -4.42526e-07 0 0.0  8.85024e-07 6.32219e-07 0.0  8.84968e-07 1.89658e-06 0.0  8.84912e-07 3.16094e-06 0.0  8.84856e-07 4.4253e-06 0.0  8.848e-07 5.68966e-06 0.0  8.84744e-07 6.95402e-06 0.0  8.84688e-07 8.21838e-06 0.0  8.84632e-07 9.48274e-06 0.0  8.84576e-07 1.07471e-05 0.0  8.8452e-07 1.20115e-05 0.0  8.84464e-07 1.32758e-05 0.0  8.84408e-07 1.45402e-05 0.0  8.84352e-07 1.58045e-05 0.0  8.84296e-07 1.70689e-05 0.0  -8.8508e-07 6.3214e-07 0.0  -8.85136e-07 1.8965e-06 0.0  -8.85192e-07 3.16086e-06 0.0  -8.85248e-07 4.42522e-06 0.0  -8.85304e-07 5.68958e-06 0.0  -8.85359e-07 6.95394e-06 0.0  -8.85415e-07 8.2183e-06 0.0  -8.85471e-07 9.48266e-06 0.0  -8.85527e-07 1.0747e-05 0.0  -8.85583e-07 1.20114e-05 0.0  -8.85639e-07 1.32757e-05 0.0  -8.85695e-07 1.45401e-05 0.0  -8.85751e-07 1.58045e-05 0.0  -8.85807e-07 1.70688e-05 0.0  4.41743e-07 1.77011e-05 0.0  -4.43309e-07 1.7701e-05 0.0
            </DataArray>
         </PointData>
      </Piece>
   </UnstructuredGrid>
</VTKFile>
