# vtk DataFile Version 4.1
vtk output
ASCII
DATASET UNSTRUCTURED_GRID
POINTS 12 float
0 0 0 1 0 0 2 0 0 
0 1 0 1 1 0 2 1 0 
0 2 0 1 2 0 2 2 0 
4 0 0 5 0 0 6 0 0 

CELLS 8 32
4 3 4 7 6 
4 4 5 8 7 
3 0 1 3 
3 1 4 3 
3 1 2 4 
3 2 4 5 
2 9 10 
2 10 11 

CELL_TYPES 8
9
9
5
5
5
5
3
3

POINT_DATA 12
FIELD FieldData 1
Scalars 1 12 double
0 1 2 3 4 5 6 7 8 
9 10 11 
