# vtk DataFile Version 4.2
vtk output
ASCII
DATASET UNSTRUCTURED_GRID
POINTS 47549 float
-0.479517 0.182064 -0.096214 -0.485531 0.179949 -0.0908696 -0.49553 0.177139 -0.0802115 
-0.505755 0.174599 -0.067036 -0.516041 0.172086 -0.0527818 -0.526652 0.168664 -0.038328 
-0.543205 0.162853 -0.00490544 -0.536241 0.165182 -0.0225373 -0.548497 0.160794 0.0133017 
-0.551969 0.159111 0.0319844 -0.553583 0.157842 0.0509888 -0.552547 0.157815 0.0699772 
-0.549469 0.158463 0.0884585 -0.544094 0.160568 0.105915 -0.538045 0.162546 0.122772 
-0.532159 0.163997 0.139494 -0.527581 0.163662 0.156575 -0.524536 0.160668 0.173914 
-0.523458 0.154206 0.191734 -0.522245 0.147422 0.21125 -0.519399 0.142944 0.232411 
-0.515757 0.141277 0.253911 -0.511539 0.143006 0.274096 -0.507049 0.146351 0.291457 
-0.503112 0.150958 0.30342 -0.478984 0.192651 -0.100497 -0.485264 0.190907 -0.0952083 
-0.495614 0.188432 -0.085515 -0.506714 0.185954 -0.0730757 -0.517806 0.183439 -0.0591749 
-0.529093 0.180547 -0.0445672 -0.547734 0.174764 -0.0102907 -0.539422 0.177617 -0.0283295 
-0.554072 0.172282 0.008986 -0.558242 0.170285 0.0290024 -0.560302 0.168587 0.0493938 
-0.559758 0.167486 0.0699099 -0.556792 0.167102 0.0900749 -0.550971 0.168303 0.10887 
-0.54485 0.169601 0.12651 -0.539157 0.17058 0.143314 -0.53489 0.169999 0.159598 
-0.5328 0.166344 0.176024 -0.532631 0.159881 0.193734 -0.53209 0.15343 0.214061 
-0.529587 0.14926 0.236511 -0.525394 0.148049 0.259482 -0.519742 0.15015 0.280794 
-0.513458 0.15427 0.298108 -0.509166 0.158238 0.308637 -0.480787 0.208059 -0.105468 
-0.487812 0.206534 -0.100716 -0.499541 0.204331 -0.0915341 -0.511875 0.202403 -0.078961 
-0.523568 0.200924 -0.0644551 -0.534532 0.199473 -0.0488318 -0.553114 0.195158 -0.0137104 
-0.544198 0.197654 -0.0318345 -0.560322 0.192587 0.00610114 -0.564902 0.190348 0.0268622 
-0.56791 0.188077 0.0478186 -0.568783 0.185957 0.0691801 -0.567286 0.1841 0.0906732 
-0.562501 0.183333 0.111311 -0.556447 0.183483 0.130438 -0.550559 0.184164 0.147524 
-0.546861 0.183476 0.162823 -0.547784 0.174017 0.195973 -0.546259 0.179922 0.178136 
-0.548191 0.168349 0.217633 -0.545992 0.164348 0.241868 -0.540676 0.163059 0.266874 
-0.53219 0.16537 0.289434 -0.522847 0.169417 0.306944 -0.516666 0.173385 0.316983 
-0.482978 0.225754 -0.110312 -0.490909 0.224811 -0.106351 -0.504263 0.223462 -0.0972464 
-0.517647 0.222621 -0.0832928 -0.528186 0.222395 -0.066409 -0.536785 0.221744 -0.0491873 
-0.554132 0.218092 -0.0144109 -0.545053 0.220198 -0.0320255 -0.562822 0.215853 0.00483995 
-0.569317 0.213668 0.0254426 -0.573971 0.211381 0.0465955 -0.57594 0.208978 0.0684052 
-0.575696 0.206527 0.0905686 -0.57291 0.204448 0.11267 -0.56771 0.203305 0.133656 
-0.561016 0.203422 0.151476 -0.557035 0.202963 0.16632 -0.557523 0.200515 0.18103 
-0.5606 0.196336 0.198947 -0.562311 0.191792 0.221255 -0.560867 0.187932 0.246823 
-0.554998 0.18601 0.273885 -0.543463 0.18747 0.29745 -0.531186 0.190354 0.314747 
-0.523304 0.193322 0.324137 -0.483735 0.245397 -0.112151 -0.49194 0.245507 -0.108009 
-0.505521 0.245347 -0.0981889 -0.518431 0.245073 -0.0830226 -0.527716 0.24455 -0.0652309 
-0.535672 0.2435 -0.0482291 -0.555207 0.240803 -0.0148412 -0.544734 0.242112 -0.0319406 
-0.56455 0.239581 0.00464846 -0.570938 0.238213 0.0255918 -0.57541 0.236604 0.0466008 
-0.578999 0.234482 0.0679401 -0.580852 0.232013 0.090442 -0.579518 0.229737 0.113631 
-0.574955 0.227901 0.135739 -0.568276 0.226639 0.154436 -0.563553 0.225711 0.169803 
-0.563216 0.224621 0.184849 -0.565727 0.222924 0.202651 -0.567859 0.220382 0.224398 
-0.568613 0.217443 0.25021 -0.562881 0.21528 0.278372 -0.549812 0.2147 0.302381 
-0.535518 0.21517 0.318909 -0.526626 0.216206 0.327118 -0.48448 0.266093 -0.113751 
-0.492311 0.266899 -0.108514 -0.505221 0.267431 -0.0975954 -0.517883 0.267263 -0.0822193 
-0.527073 0.266217 -0.0645505 -0.535459 0.265077 -0.0479628 -0.554809 0.263736 -0.013649 
-0.544968 0.264229 -0.0315986 -0.562939 0.263085 0.00631236 -0.56918 0.262204 0.0269913 
-0.573527 0.261139 0.0476657 -0.577371 0.259924 0.0685295 -0.580348 0.25842 0.0908782 
-0.579605 0.256441 0.114257 -0.575525 0.254117 0.136325 -0.570133 0.251685 0.155609 
-0.565796 0.249793 0.172389 -0.563473 0.248769 0.188451 -0.563487 0.248123 0.206084 
-0.565319 0.247363 0.226835 -0.565896 0.246283 0.251678 -0.560863 0.244671 0.278856 
-0.548757 0.242386 0.302277 -0.535081 0.240226 0.318473 -0.526364 0.239167 0.326318 
-0.483319 0.287447 -0.112751 -0.490742 0.288502 -0.106563 -0.502593 0.289209 -0.0948311 
-0.514508 0.288933 -0.0797481 -0.524226 0.287467 -0.0629592 -0.533109 0.286282 -0.0463887 
-0.552493 0.285991 -0.0115061 -0.54299 0.285956 -0.0297497 -0.560561 0.285839 0.00825422 
-0.566217 0.285321 0.0289314 -0.569975 0.284658 0.0494601 -0.573091 0.284001 0.0700347 
-0.575462 0.283197 0.0919182 -0.574978 0.281558 0.114664 -0.571681 0.278969 0.136201 
-0.567546 0.276081 0.15577 -0.563437 0.273494 0.17351 -0.560477 0.271721 0.190454 
-0.559549 0.270962 0.208278 -0.559882 0.270841 0.228415 -0.559616 0.270775 0.251956 
-0.554112 0.269395 0.277126 -0.543573 0.266482 0.299238 -0.531813 0.263142 0.315454 
-0.524237 0.26095 0.323632 -0.479041 0.307757 -0.10773 -0.486213 0.308676 -0.101548 
-0.497437 0.30926 -0.09018 -0.509161 0.309048 -0.0764924 -0.52083 0.308273 -0.0618526 
-0.53196 0.307738 -0.0458756 -0.550232 0.308387 -0.00904742 -0.541985 0.307948 -0.028191 
-0.556609 0.308452 0.0109604 -0.561444 0.307971 0.0314397 -0.563995 0.30693 0.0517958 
-0.566479 0.306356 0.0719431 -0.56815 0.305783 0.0932378 -0.567047 0.304109 0.114942 
-0.564523 0.301535 0.135647 -0.561321 0.298573 0.155118 -0.558034 0.295704 0.173355 
-0.554054 0.292279 0.209317 -0.555728 0.293588 0.191127 -0.553269 0.291721 0.229012 
-0.551947 0.291409 0.251168 -0.546836 0.290037 0.274471 -0.537834 0.287366 0.295481 
-0.527978 0.284252 0.312006 -0.521778 0.281865 0.321172 -0.474746 0.327215 -0.102489 
-0.481532 0.328014 -0.0967008 -0.49269 0.328667 -0.0862025 -0.504871 0.329058 -0.0738617 
-0.517412 0.329621 -0.0601748 -0.529429 0.330334 -0.0441258 -0.544954 0.330448 -0.00529692 
-0.538769 0.33071 -0.0252225 -0.54967 0.329711 0.0144171 -0.553642 0.32866 0.0341453 
-0.556557 0.327192 0.0539117 -0.558295 0.325995 0.0738373 -0.559094 0.325251 0.094451 
-0.557444 0.323502 0.114957 -0.555628 0.321436 0.134827 -0.553229 0.318816 0.154105 
-0.550701 0.315939 0.172627 -0.548567 0.313371 0.190733 -0.547074 0.311472 0.208998 
-0.546677 0.31045 0.228318 -0.545859 0.309932 0.24962 -0.541435 0.308871 0.271895 
-0.533296 0.306908 0.292193 -0.524633 0.304571 0.308922 -0.519355 0.302409 0.319069 
-0.471233 0.346564 -0.0989484 -0.477723 0.347223 -0.0927488 -0.488578 0.347894 -0.0823871 
-0.500637 0.348671 -0.0703016 -0.512331 0.349803 -0.0560313 -0.522885 0.351003 -0.0394348 
-0.53659 0.349915 -0.00139261 -0.531144 0.351196 -0.0206989 -0.541253 0.348181 0.017387 
-0.545159 0.346157 0.0361612 -0.548993 0.344359 0.0551523 -0.551529 0.34278 0.0749994 
-0.551286 0.341571 0.0953991 -0.548737 0.340009 0.115042 -0.546404 0.3385 0.134124 
-0.544123 0.336415 0.152912 -0.542525 0.333727 0.171285 -0.541819 0.330997 0.18945 
-0.541365 0.328773 0.207776 -0.541914 0.327744 0.226997 -0.541662 0.327634 0.247972 
-0.53737 0.327305 0.26961 -0.529329 0.32596 0.289097 -0.521301 0.32432 0.30558 
-0.516435 0.322525 0.31625 -0.468185 0.365388 -0.0955267 -0.473902 0.365953 -0.0889166 
-0.484424 0.366785 -0.0787343 -0.496768 0.368109 -0.0671714 -0.507968 0.369123 -0.0522303 
-0.516259 0.369336 -0.0347061 -0.528084 0.366698 0.00130363 -0.522655 0.368519 -0.016552 
-0.533957 0.36469 0.0186559 -0.539687 0.362424 0.0363645 -0.544839 0.360166 0.0549775 
-0.548806 0.358304 0.0752208 -0.547893 0.356837 0.0963129 -0.543696 0.35544 0.11578 
-0.539565 0.354083 0.134103 -0.536383 0.352161 0.152002 -0.536039 0.349922 0.169794 
-0.537917 0.34787 0.187733 -0.539604 0.346136 0.206382 -0.540641 0.345618 0.22612 
-0.539154 0.3459 0.247056 -0.533404 0.345757 0.267545 -0.525386 0.344707 0.285976 
-0.517183 0.343259 0.301625 -0.511824 0.34132 0.311616 -0.466747 0.384126 -0.0933265 
-0.47128 0.384345 -0.0856365 -0.480314 0.384952 -0.0746452 -0.491503 0.386493 -0.0628688 
-0.502299 0.387578 -0.0483612 -0.510041 0.386967 -0.0312885 -0.522118 0.383446 0.00226309 
-0.51608 0.385375 -0.0141884 -0.529516 0.381756 0.0182786 -0.537132 0.379543 0.0349974 
-0.544356 0.376665 0.0533254 -0.54944 0.374298 0.0746597 -0.548622 0.372947 0.097123 
-0.543629 0.371949 0.117099 -0.537579 0.370164 0.134788 -0.533522 0.368002 0.151964 
-0.534282 0.366468 0.16939 -0.536993 0.365369 0.18712 -0.539577 0.364706 0.206028 
-0.539003 0.364627 0.226067 -0.535707 0.36472 0.246309 -0.529015 0.364122 0.265366 
-0.520795 0.362884 0.282442 -0.512386 0.361149 0.296899 -0.506988 0.358841 0.306225 
-0.464685 0.402334 -0.090657 -0.468989 0.401995 -0.0824416 -0.476627 0.40208 -0.070646 
-0.485764 0.403045 -0.0580923 -0.495078 0.40394 -0.0441546 -0.502995 0.403457 -0.0287131 
-0.517929 0.400646 0.00198759 -0.510274 0.402122 -0.0132518 -0.526208 0.399478 0.0174296 
-0.535191 0.397997 0.0332867 -0.546492 0.395825 0.0505377 -0.554356 0.393576 0.0734272 
-0.55289 0.391983 0.0979978 -0.545536 0.390521 0.117658 -0.542013 0.387522 0.135433 
-0.540586 0.384661 0.153894 -0.538034 0.384278 0.171611 -0.538139 0.384526 0.2071 
-0.538051 0.384373 0.188767 -0.535893 0.38429 0.22636 -0.53114 0.383641 0.245371 
-0.523825 0.382141 0.262883 -0.515281 0.380116 0.278341 -0.506874 0.377765 0.291435 
-0.501614 0.375179 0.300009 -0.462414 0.419329 -0.0878189 -0.467745 0.419082 -0.0803603 
-0.475056 0.418937 -0.0686169 -0.482631 0.419358 -0.0555826 -0.490056 0.4198 -0.0417597 
-0.497688 0.419707 -0.0277656 -0.516198 0.41843 -0.000515313 -0.506377 0.419159 -0.014223 
-0.526078 0.417985 0.0146292 -0.536365 0.418014 0.030994 -0.547718 0.418309 0.0494621 
-0.556207 0.417734 0.0728403 -0.555702 0.415387 0.0977452 -0.551212 0.41212 0.118414 
-0.549921 0.408816 0.137926 -0.547129 0.406608 0.158203 -0.540435 0.405563 0.175711 
[...]
POINT_DATA 47549
VECTORS MyVectors double
-0.297453 -0.297453 -0.297453 -0.305582 -0.305582 -0.305582 -0.318391 -0.318391 -0.318391 
-0.331156 -0.331156 -0.331156 -0.343955 -0.343955 -0.343955 -0.357988 -0.357988 -0.357988 
-0.380352 -0.380352 -0.380352 -0.371059 -0.371059 -0.371059 -0.387703 -0.387703 -0.387703 
-0.392858 -0.392858 -0.392858 -0.395741 -0.395741 -0.395741 -0.394732 -0.394732 -0.394732 
-0.391006 -0.391006 -0.391006 -0.383526 -0.383526 -0.383526 -0.375499 -0.375499 -0.375499 
-0.368162 -0.368162 -0.368162 -0.363919 -0.363919 -0.363919 -0.363868 -0.363868 -0.363868 
-0.369252 -0.369252 -0.369252 -0.374823 -0.374823 -0.374823 -0.376455 -0.376455 -0.376455 
-0.37448 -0.37448 -0.37448 -0.368533 -0.368533 -0.368533 -0.360698 -0.360698 -0.360698 
-0.352154 -0.352154 -0.352154 -0.286333 -0.286333 -0.286333 -0.294357 -0.294357 -0.294357 
-0.307182 -0.307182 -0.307182 -0.32076 -0.32076 -0.32076 -0.334367 -0.334367 -0.334367 
-0.348546 -0.348546 -0.348546 -0.37297 -0.37297 -0.37297 -0.361805 -0.361805 -0.361805 
-0.38179 -0.38179 -0.38179 -0.387957 -0.387957 -0.387957 -0.391715 -0.391715 -0.391715 
-0.392272 -0.392272 -0.392272 -0.38969 -0.38969 -0.38969 -0.382668 -0.382668 -0.382668 
-0.375249 -0.375249 -0.375249 -0.368577 -0.368577 -0.368577 -0.364891 -0.364891 -0.364891 
-0.366456 -0.366456 -0.366456 -0.37275 -0.37275 -0.37275 -0.37866 -0.37866 -0.37866 
-0.380327 -0.380327 -0.380327 -0.377345 -0.377345 -0.377345 -0.369592 -0.369592 -0.369592 
-0.359188 -0.359188 -0.359188 -0.350928 -0.350928 -0.350928 -0.272728 -0.272728 -0.272728 
-0.281278 -0.281278 -0.281278 -0.29521 -0.29521 -0.29521 -0.309472 -0.309472 -0.309472 
-0.322644 -0.322644 -0.322644 -0.335059 -0.335059 -0.335059 -0.357956 -0.357956 -0.357956 
-0.346544 -0.346544 -0.346544 -0.367735 -0.367735 -0.367735 -0.374554 -0.374554 -0.374554 
-0.379833 -0.379833 -0.379833 -0.382826 -0.382826 -0.382826 -0.383186 -0.383186 -0.383186 
-0.379168 -0.379168 -0.379168 -0.372964 -0.372964 -0.372964 -0.366395 -0.366395 -0.366395 
-0.363385 -0.363385 -0.363385 -0.373767 -0.373767 -0.373767 -0.366337 -0.366337 -0.366337 
-0.379842 -0.379842 -0.379842 -0.381644 -0.381644 -0.381644 -0.377617 -0.377617 -0.377617 
-0.36682 -0.36682 -0.36682 -0.35343 -0.35343 -0.35343 -0.343281 -0.343281 -0.343281 
-0.257224 -0.257224 -0.257224 -0.266098 -0.266098 -0.266098 -0.280801 -0.280801 -0.280801 
-0.295026 -0.295026 -0.295026 -0.305791 -0.305791 -0.305791 -0.315041 -0.315041 -0.315041 
-0.33604 -0.33604 -0.33604 -0.324855 -0.324855 -0.324855 -0.346969 -0.346969 -0.346969 
-0.355649 -0.355649 -0.355649 -0.36259 -0.36259 -0.36259 -0.366962 -0.366962 -0.366962 
-0.369169 -0.369169 -0.369169 -0.368462 -0.368462 -0.368462 -0.364405 -0.364405 -0.364405 
-0.357594 -0.357594 -0.357594 -0.354072 -0.354072 -0.354072 -0.357008 -0.357008 -0.357008 
-0.364264 -0.364264 -0.364264 -0.370519 -0.370519 -0.370519 -0.372935 -0.372935 -0.372935 
-0.368988 -0.368988 -0.368988 -0.355993 -0.355993 -0.355993 -0.340832 -0.340832 -0.340832 
-0.329982 -0.329982 -0.329982 -0.238338 -0.238338 -0.238338 -0.246433 -0.246433 -0.246433 
-0.260174 -0.260174 -0.260174 -0.273358 -0.273358 -0.273358 -0.283166 -0.283166 -0.283166 
-0.292172 -0.292172 -0.292172 -0.314404 -0.314404 -0.314404 -0.302622 -0.302622 -0.302622 
-0.324969 -0.324969 -0.324969 -0.332725 -0.332725 -0.332725 -0.338806 -0.338806 -0.338806 
-0.344517 -0.344517 -0.344517 -0.348839 -0.348839 -0.348839 -0.349781 -0.349781 -0.349781 
-0.347054 -0.347054 -0.347054 -0.341637 -0.341637 -0.341637 -0.337842 -0.337842 -0.337842 
-0.338595 -0.338595 -0.338595 -0.342803 -0.342803 -0.342803 -0.347477 -0.347477 -0.347477 
-0.35117 -0.35117 -0.35117 -0.347601 -0.347601 -0.347601 -0.335112 -0.335112 -0.335112 
-0.320348 -0.320348 -0.320348 -0.31042 -0.31042 -0.31042 -0.218387 -0.218387 -0.218387 
-0.225412 -0.225412 -0.225412 -0.23779 -0.23779 -0.23779 -0.25062 -0.25062 -0.25062 
-0.260856 -0.260856 -0.260856 -0.270382 -0.270382 -0.270382 -0.291073 -0.291073 -0.291073 
-0.280739 -0.280739 -0.280739 -0.299854 -0.299854 -0.299854 -0.306976 -0.306976 -0.306976 
-0.312388 -0.312388 -0.312388 -0.317447 -0.317447 -0.317447 -0.321928 -0.321928 -0.321928 
-0.323164 -0.323164 -0.323164 -0.321408 -0.321408 -0.321408 -0.318448 -0.318448 -0.318448 
-0.316003 -0.316003 -0.316003 -0.314704 -0.314704 -0.314704 -0.315364 -0.315364 -0.315364 
-0.317956 -0.317956 -0.317956 -0.319613 -0.319613 -0.319613 -0.316192 -0.316192 -0.316192 
-0.306371 -0.306371 -0.306371 -0.294855 -0.294855 -0.294855 -0.287197 -0.287197 -0.287197 
-0.195872 -0.195872 -0.195872 -0.20224 -0.20224 -0.20224 -0.213384 -0.213384 -0.213384 
-0.225575 -0.225575 -0.225575 -0.236759 -0.236759 -0.236759 -0.246827 -0.246827 -0.246827 
-0.266502 -0.266502 -0.266502 -0.257034 -0.257034 -0.257034 -0.274722 -0.274722 -0.274722 
-0.280896 -0.280896 -0.280896 -0.285317 -0.285317 -0.285317 -0.28909 -0.28909 -0.28909 
-0.292265 -0.292265 -0.292265 -0.29342 -0.29342 -0.29342 -0.292712 -0.292712 -0.292712 
-0.291465 -0.291465 -0.291465 -0.289943 -0.289943 -0.289943 -0.288756 -0.288756 -0.288756 
-0.288587 -0.288587 -0.288587 -0.289041 -0.289041 -0.289041 -0.288841 -0.288841 -0.288841 
-0.284717 -0.284717 -0.284717 -0.277091 -0.277091 -0.277091 -0.268671 -0.268671 -0.268671 
-0.263287 -0.263287 -0.263287 -0.171284 -0.171284 -0.171284 -0.177537 -0.177537 -0.177537 
-0.188177 -0.188177 -0.188177 -0.200113 -0.200113 -0.200113 -0.212557 -0.212557 -0.212557 
-0.224222 -0.224222 -0.224222 -0.241845 -0.241845 -0.241845 -0.234037 -0.234037 -0.234037 
-0.248157 -0.248157 -0.248157 -0.253473 -0.253473 -0.253473 -0.257065 -0.257065 -0.257065 
-0.260123 -0.260123 -0.260123 -0.262367 -0.262367 -0.262367 -0.262938 -0.262938 -0.262938 
-0.262988 -0.262988 -0.262988 -0.262748 -0.262748 -0.262748 -0.26233 -0.26233 -0.26233 
-0.261775 -0.261775 -0.261775 -0.26214 -0.26214 -0.26214 -0.261548 -0.261548 -0.261548 
-0.260538 -0.260538 -0.260538 -0.256799 -0.256799 -0.256799 -0.250468 -0.250468 -0.250468 
-0.243726 -0.243726 -0.243726 -0.239913 -0.239913 -0.239913 -0.147531 -0.147531 -0.147531 
-0.153518 -0.153518 -0.153518 -0.164023 -0.164023 -0.164023 -0.175813 -0.175813 -0.175813 
-0.187791 -0.187791 -0.187791 -0.199095 -0.199095 -0.199095 -0.214506 -0.214506 -0.214506 
-0.208059 -0.208059 -0.208059 -0.219959 -0.219959 -0.219959 -0.224982 -0.224982 -0.224982 
-0.229365 -0.229365 -0.229365 -0.2323 -0.2323 -0.2323 -0.233843 -0.233843 -0.233843 
-0.233942 -0.233942 -0.233942 -0.234192 -0.234192 -0.234192 -0.234413 -0.234413 -0.234413 
-0.234762 -0.234762 -0.234762 -0.235196 -0.235196 -0.235196 -0.235602 -0.235602 -0.235602 
-0.236227 -0.236227 -0.236227 -0.235927 -0.235927 -0.235927 -0.232564 -0.232564 -0.232564 
-0.226388 -0.226388 -0.226388 -0.220062 -0.220062 -0.220062 -0.216946 -0.216946 -0.216946 
-0.124669 -0.124669 -0.124669 -0.1305 -0.1305 -0.1305 -0.140684 -0.140684 -0.140684 
-0.151966 -0.151966 -0.151966 -0.162528 -0.162528 -0.162528 -0.171882 -0.171882 -0.171882 
-0.186675 -0.186675 -0.186675 -0.179948 -0.179948 -0.179948 -0.193072 -0.193072 -0.193072 
-0.199002 -0.199002 -0.199002 -0.204634 -0.204634 -0.204634 -0.208749 -0.208749 -0.208749 
-0.209715 -0.209715 -0.209715 -0.208728 -0.208728 -0.208728 -0.207904 -0.207904 -0.207904 
-0.207708 -0.207708 -0.207708 -0.208798 -0.208798 -0.208798 -0.210822 -0.210822 -0.210822 
-0.212592 -0.212592 -0.212592 -0.21417 -0.21417 -0.21417 -0.214028 -0.214028 -0.214028 
-0.210065 -0.210065 -0.210065 -0.203369 -0.203369 -0.203369 -0.196981 -0.196981 -0.196981 
-0.19391 -0.19391 -0.19391 -0.102797 -0.102797 -0.102797 -0.107949 -0.107949 -0.107949 
-0.117639 -0.117639 -0.117639 -0.128659 -0.128659 -0.128659 -0.138845 -0.138845 -0.138845 
-0.146923 -0.146923 -0.146923 -0.161386 -0.161386 -0.161386 -0.154136 -0.154136 -0.154136 
-0.169267 -0.169267 -0.169267 -0.177263 -0.177263 -0.177263 -0.184673 -0.184673 -0.184673 
-0.190502 -0.190502 -0.190502 -0.191056 -0.191056 -0.191056 -0.188256 -0.188256 -0.188256 
-0.185482 -0.185482 -0.185482 -0.184222 -0.184222 -0.184222 -0.186117 -0.186117 -0.186117 
-0.190047 -0.190047 -0.190047 -0.193468 -0.193468 -0.193468 -0.195023 -0.195023 -0.195023 
-0.193254 -0.193254 -0.193254 -0.187647 -0.187647 -0.187647 -0.180679 -0.180679 -0.180679 
-0.173924 -0.173924 -0.173924 -0.170504 -0.170504 -0.170504 -0.082621 -0.082621 -0.082621 
-0.086935 -0.086935 -0.086935 -0.095362 -0.095362 -0.095362 -0.10501 -0.10501 -0.10501 
-0.114721 -0.114721 -0.114721 -0.123074 -0.123074 -0.123074 -0.138672 -0.138672 -0.138672 
-0.130705 -0.130705 -0.130705 -0.14776 -0.14776 -0.14776 -0.157589 -0.157589 -0.157589 
-0.167691 -0.167691 -0.167691 -0.175142 -0.175142 -0.175142 -0.175675 -0.175675 -0.175675 
-0.17168 -0.17168 -0.17168 -0.167415 -0.167415 -0.167415 -0.16552 -0.16552 -0.16552 
-0.167814 -0.167814 -0.167814 -0.171624 -0.171624 -0.171624 -0.174871 -0.174871 -0.174871 
-0.174376 -0.174376 -0.174376 -0.170987 -0.170987 -0.170987 -0.164893 -0.164893 -0.164893 
-0.157911 -0.157911 -0.157911 -0.151237 -0.151237 -0.151237 -0.148147 -0.148147 -0.148147 
-0.062351 -0.062351 -0.062351 -0.066994 -0.066994 -0.066994 -0.074547 -0.074547 -0.074547 
-0.082719 -0.082719 -0.082719 -0.091138 -0.091138 -0.091138 -0.099538 -0.099538 -0.099538 
-0.117283 -0.117283 -0.117283 -0.108152 -0.108152 -0.108152 -0.12673 -0.12673 -0.12673 
-0.137194 -0.137194 -0.137194 -0.150667 -0.150667 -0.150667 -0.16078 -0.16078 -0.16078 
-0.160907 -0.160907 -0.160907 -0.155015 -0.155015 -0.155015 -0.154491 -0.154491 -0.154491 
-0.155925 -0.155925 -0.155925 -0.153756 -0.153756 -0.153756 -0.153613 -0.153613 -0.153613 
-0.153678 -0.153678 -0.153678 -0.151603 -0.151603 -0.151603 -0.147499 -0.147499 -0.147499 
-0.141684 -0.141684 -0.141684 -0.135165 -0.135165 -0.135165 -0.129109 -0.129109 -0.129109 
-0.126435 -0.126435 -0.126435 -0.043085 -0.043085 -0.043085 -0.048663 -0.048663 -0.048663 
-0.056119 -0.056119 -0.056119 -0.063273 -0.063273 -0.063273 -0.070256 -0.070256 -0.070256 
-0.077981 -0.077981 -0.077981 -0.097768 -0.097768 -0.097768 -0.087218 -0.087218 -0.087218 
-0.108093 -0.108093 -0.108093 -0.118351 -0.118351 -0.118351 -0.129409 -0.129409 -0.129409 
-0.138473 -0.138473 -0.138473 -0.140315 -0.140315 -0.140315 -0.139092 -0.139092 -0.139092 
-0.141105 -0.141105 -0.141105 -0.140521 -0.140521 -0.140521 -0.134872 -0.134872 -0.134872 
-0.131267 -0.131267 -0.131267 -0.129093 -0.129093 -0.129093 -0.126593 -0.126593 -0.126593 
-0.122798 -0.122798 -0.122798 -0.118198 -0.118198 -0.118198 -0.113023 -0.113023 -0.113023 
-0.108005 -0.108005 -0.108005 -0.105643 -0.105643 -0.105643 -0.026739 -0.026739 -0.026739 
-0.031898 -0.031898 -0.031898 -0.038835 -0.038835 -0.038835 -0.045563 -0.045563 -0.045563 
-0.052179 -0.052179 -0.052179 -0.059122 -0.059122 -0.059122 -0.078785 -0.078785 -0.078785 
-0.067936 -0.067936 -0.067936 -0.090404 -0.090404 -0.090404 -0.099164 -0.099164 -0.099164 
-0.104726 -0.104726 -0.104726 -0.109278 -0.109278 -0.109278 -0.1126 -0.1126 -0.1126 
-0.11407 -0.11407 -0.11407 -0.113812 -0.113812 -0.113812 -0.110601 -0.110601 -0.110601 
-0.107448 -0.107448 -0.107448 -0.105217 -0.105217 -0.105217 -0.103556 -0.103556 -0.103556 
-0.1014 -0.1014 -0.1014 -0.098861 -0.098861 -0.098861 -0.095808 -0.095808 -0.095808 
-0.092265 -0.092265 -0.092265 -0.08847 -0.08847 -0.08847 -0.086471 -0.086471 -0.086471 
-0.010536 -0.010536 -0.010536 -0.014634 -0.014634 -0.014634 -0.020282 -0.020282 -0.020282 
-0.026066 -0.026066 -0.026066 -0.032783 -0.032783 -0.032783 -0.0396 -0.0396 -0.0396 
-0.052891 -0.052891 -0.052891 -0.046167 -0.046167 -0.046167 -0.060113 -0.060113 -0.060113 
-0.067202 -0.067202 -0.067202 -0.072654 -0.072654 -0.072654 -0.076004 -0.076004 -0.076004 
-0.078136 -0.078136 -0.078136 -0.079212 -0.079212 -0.079212 -0.079369 -0.079369 -0.079369 
-0.079149 -0.079149 -0.079149 -0.078929 -0.078929 -0.078929 -0.078766 -0.078766 -0.078766 
-0.07833 -0.07833 -0.07833 -0.077538 -0.077538 -0.077538 -0.076562 -0.076562 -0.076562 
-0.075207 -0.075207 -0.075207 -0.073342 -0.073342 -0.073342 -0.071007 -0.071007 -0.071007 
-0.069615 -0.069615 -0.069615 0.003691 0.003691 0.003691 0.000999 0.000999 0.000999 
-0.003344 -0.003344 -0.003344 -0.008226 -0.008226 -0.008226 -0.013691 -0.013691 -0.013691 
-0.01852 -0.01852 -0.01852 -0.026669 -0.026669 -0.026669 -0.022725 -0.022725 -0.022725 
-0.030726 -0.030726 -0.030726 -0.034887 -0.034887 -0.034887 -0.038801 -0.038801 -0.038801 
-0.04232 -0.04232 -0.04232 -0.045442 -0.045442 -0.045442 -0.04805 -0.04805 -0.04805 
-0.050253 -0.050253 -0.050253 -0.052114 -0.052114 -0.052114 -0.05364 -0.05364 -0.05364 
-0.054781 -0.054781 -0.054781 -0.055723 -0.055723 -0.055723 -0.056397 -0.056397 -0.056397 
-0.056923 -0.056923 -0.056923 -0.057079 -0.057079 -0.057079 -0.056813 -0.056813 -0.056813 
-0.056159 -0.056159 -0.056159 -0.055874 -0.055874 -0.055874 0.014652 0.014652 0.014652 
0.011276 0.011276 0.011276 0.007965 0.007965 0.007965 0.004989 0.004989 0.004989 
0.001579 0.001579 0.001579 -0.001931 -0.001931 -0.001931 -0.009539 -0.009539 -0.009539 
-0.005593 -0.005593 -0.005593 -0.013752 -0.013752 -0.013752 -0.01768 -0.01768 -0.01768 
-0.021539 -0.021539 -0.021539 -0.025143 -0.025143 -0.025143 -0.028241 -0.028241 -0.028241 
-0.031165 -0.031165 -0.031165 -0.03395 -0.03395 -0.03395 -0.036133 -0.036133 -0.036133 
-0.038011 -0.038011 -0.038011 -0.041196 -0.041196 -0.041196 -0.03962 -0.03962 -0.03962 
-0.042789 -0.042789 -0.042789 -0.044199 -0.044199 -0.044199 -0.045228 -0.045228 -0.045228 
-0.045778 -0.045778 -0.045778 -0.046119 -0.046119 -0.046119 -0.046009 -0.046009 -0.046009 
-0.290401 -0.290401 -0.290401 -0.298198 -0.298198 -0.298198 -0.311796 -0.311796 -0.311796 
-0.325785 -0.325785 -0.325785 -0.339543 -0.339543 -0.339543 -0.353641 -0.353641 -0.353641 
-0.377459 -0.377459 -0.377459 -0.366634 -0.366634 -0.366634 -0.385678 -0.385678 -0.385678 
-0.391289 -0.391289 -0.391289 -0.393945 -0.393945 -0.393945 -0.392253 -0.392253 -0.392253 
-0.387045 -0.387045 -0.387045 -0.379431 -0.379431 -0.379431 -0.371691 -0.371691 -0.371691 
-0.365378 -0.365378 -0.365378 -0.361103 -0.361103 -0.361103 -0.359404 -0.359404 -0.359404 
-0.361213 -0.361213 -0.361213 -0.364616 -0.364616 -0.364616 -0.365625 -0.365625 -0.365625 
-0.364182 -0.364182 -0.364182 -0.358091 -0.358091 -0.358091 -0.350318 -0.350318 -0.350318 
-0.343472 -0.343472 -0.343472 -0.278534 -0.278534 -0.278534 -0.283174 -0.283174 -0.283174 
-0.292835 -0.292835 -0.292835 -0.30479 -0.30479 -0.30479 -0.317329 -0.317329 -0.317329 
-0.329701 -0.329701 -0.329701 -0.351257 -0.351257 -0.351257 -0.341251 -0.341251 -0.341251 
-0.359218 -0.359218 -0.359218 -0.364939 -0.364939 -0.364939 -0.368143 -0.368143 -0.368143 
-0.368659 -0.368659 -0.368659 -0.366378 -0.366378 -0.366378 -0.362044 -0.362044 -0.362044 
-0.356736 -0.356736 -0.356736 -0.351938 -0.351938 -0.351938 -0.348835 -0.348835 -0.348835 
-0.349854 -0.349854 -0.349854 -0.348291 -0.348291 -0.348291 -0.351889 -0.351889 -0.351889 
-0.352558 -0.352558 -0.352558 -0.350573 -0.350573 -0.350573 -0.346092 -0.346092 -0.346092 
-0.340818 -0.340818 -0.340818 -0.340601 -0.340601 -0.340601 -0.26243 -0.26243 -0.26243 
-0.267045 -0.267045 -0.267045 -0.275635 -0.275635 -0.275635 -0.28627 -0.28627 -0.28627 
-0.297279 -0.297279 -0.297279 -0.308012 -0.308012 -0.308012 -0.327669 -0.327669 -0.327669 
-0.318269 -0.318269 -0.318269 -0.335699 -0.335699 -0.335699 -0.341953 -0.341953 -0.341953 
-0.346152 -0.346152 -0.346152 -0.348212 -0.348212 -0.348212 -0.347959 -0.347959 -0.347959 
-0.345686 -0.345686 -0.345686 -0.342057 -0.342057 -0.342057 -0.338485 -0.338485 -0.338485 
-0.336464 -0.336464 -0.336464 -0.339164 -0.339164 -0.339164 -0.336899 -0.336899 -0.336899 
-0.341561 -0.341561 -0.341561 -0.342224 -0.342224 -0.342224 -0.340046 -0.340046 -0.340046 
-0.335422 -0.335422 -0.335422 -0.330757 -0.330757 -0.330757 -0.332356 -0.332356 -0.332356 
-0.244975 -0.244975 -0.244975 -0.249086 -0.249086 -0.249086 -0.257354 -0.257354 -0.257354 
-0.267248 -0.267248 -0.267248 -0.277205 -0.277205 -0.277205 -0.286819 -0.286819 -0.286819 
-0.305304 -0.305304 -0.305304 -0.296253 -0.296253 -0.296253 -0.313385 -0.313385 -0.313385 
-0.319995 -0.319995 -0.319995 -0.324918 -0.324918 -0.324918 -0.328155 -0.328155 -0.328155 
-0.329484 -0.329484 -0.329484 -0.328845 -0.328845 -0.328845 -0.326566 -0.326566 -0.326566 
-0.323887 -0.323887 -0.323887 -0.322367 -0.322367 -0.322367 -0.325257 -0.325257 -0.325257 
-0.322997 -0.322997 -0.322997 -0.327624 -0.327624 -0.327624 -0.328254 -0.328254 -0.328254 
-0.325947 -0.325947 -0.325947 -0.321132 -0.321132 -0.321132 -0.31635 -0.31635 -0.31635 
-0.318073 -0.318073 -0.318073 -0.225137 -0.225137 -0.225137 -0.229391 -0.229391 -0.229391 
-0.23725 -0.23725 -0.23725 -0.246569 -0.246569 -0.246569 -0.255841 -0.255841 -0.255841 
-0.264791 -0.264791 -0.264791 -0.282373 -0.282373 -0.282373 -0.27369 -0.27369 -0.27369 
-0.290261 -0.290261 -0.290261 -0.296862 -0.296862 -0.296862 -0.302064 -0.302064 -0.302064 
-0.305909 -0.305909 -0.305909 -0.308202 -0.308202 -0.308202 -0.308709 -0.308709 -0.308709 
-0.307542 -0.307542 -0.307542 -0.305679 -0.305679 -0.305679 -0.304442 -0.304442 -0.304442 
-0.306362 -0.306362 -0.306362 -0.304744 -0.304744 -0.304744 -0.308187 -0.308187 -0.308187 
-0.308603 -0.308603 -0.308603 -0.30637 -0.30637 -0.30637 -0.301843 -0.301843 -0.301843 
-0.297336 -0.297336 -0.297336 -0.29786 -0.29786 -0.29786 -0.204777 -0.204777 -0.204777 
-0.207923 -0.207923 -0.207923 -0.215324 -0.215324 -0.215324 -0.224231 -0.224231 -0.224231 
-0.233249 -0.233249 -0.233249 -0.242035 -0.242035 -0.242035 -0.258977 -0.258977 -0.258977 
-0.250681 -0.250681 -0.250681 -0.266401 -0.266401 -0.266401 -0.272587 -0.272587 -0.272587 
-0.277569 -0.277569 -0.277569 -0.281464 -0.281464 -0.281464 -0.284109 -0.284109 -0.284109 
-0.285239 -0.285239 -0.285239 -0.284924 -0.284924 -0.284924 -0.283863 -0.283863 -0.283863 
-0.282972 -0.282972 -0.282972 -0.283672 -0.283672 -0.283672 -0.2829 -0.2829 -0.2829 
-0.284658 -0.284658 -0.284658 -0.2846 -0.2846 -0.2846 -0.282495 -0.282495 -0.282495 
-0.278658 -0.278658 -0.278658 -0.275188 -0.275188 -0.275188 -0.274922 -0.274922 -0.274922 
-0.181963 -0.181963 -0.181963 -0.185244 -0.185244 -0.185244 -0.19232 -0.19232 -0.19232 
-0.201035 -0.201035 -0.201035 -0.210089 -0.210089 -0.210089 -0.21892 -0.21892 -0.21892 
-0.235042 -0.235042 -0.235042 -0.227314 -0.227314 -0.227314 -0.241823 -0.241823 -0.241823 
-0.24747 -0.24747 -0.24747 -0.252051 -0.252051 -0.252051 -0.255648 -0.255648 -0.255648 
-0.258183 -0.258183 -0.258183 -0.259528 -0.259528 -0.259528 -0.259802 -0.259802 -0.259802 
-0.259485 -0.259485 -0.259485 -0.259095 -0.259095 -0.259095 -0.259214 -0.259214 -0.259214 
-0.258975 -0.258975 -0.258975 -0.259459 -0.259459 -0.259459 -0.258886 -0.258886 -0.258886 
-0.256847 -0.256847 -0.256847 -0.253779 -0.253779 -0.253779 -0.251636 -0.251636 -0.251636 
-0.253343 -0.253343 -0.253343 -0.158143 -0.158143 -0.158143 -0.161938 -0.161938 -0.161938 
-0.168814 -0.168814 -0.168814 -0.177385 -0.177385 -0.177385 -0.18643 -0.18643 -0.18643 
-0.195218 -0.195218 -0.195218 -0.210489 -0.210489 -0.210489 -0.203302 -0.203302 -0.203302 
-0.216712 -0.216712 -0.216712 -0.221966 -0.221966 -0.221966 -0.226253 -0.226253 -0.226253 
-0.229565 -0.229565 -0.229565 -0.231858 -0.231858 -0.231858 -0.233197 -0.233197 -0.233197 
-0.233796 -0.233796 -0.233796 -0.234019 -0.234019 -0.234019 -0.234139 -0.234139 -0.234139 
-0.234518 -0.234518 -0.234518 -0.234303 -0.234303 -0.234303 -0.234514 -0.234514 -0.234514 
-0.233698 -0.233698 -0.233698 -0.231701 -0.231701 -0.231701 -0.229054 -0.229054 -0.229054 
-0.227703 -0.227703 -0.227703 -0.230929 -0.230929 -0.230929 -0.135516 -0.135516 -0.135516 
-0.138754 -0.138754 -0.138754 -0.145432 -0.145432 -0.145432 -0.153763 -0.153763 -0.153763 
-0.162562 -0.162562 -0.162562 -0.171048 -0.171048 -0.171048 -0.185528 -0.185528 -0.185528 
-0.178745 -0.178745 -0.178745 -0.191484 -0.191484 -0.191484 -0.196696 -0.196696 -0.196696 
-0.201059 -0.201059 -0.201059 -0.204359 -0.204359 -0.204359 -0.206481 -0.206481 -0.206481 