# vtk DataFile Version 4.2
vtk output
ASCII
DATASET UNSTRUCTURED_GRID
POINTS 500 float
-3.425 -0.855454 2.2574 -1.75672 0.682006 0.807596 0.911641 -0.828054 3.0407 
-3.33802 0.263706 1.3869 -1.79623 0.715706 1.215 -0.204659 0.658506 3.6278 
-2.16058 -0.044274 3.332 -1.96264 -1.12646 3.0265 0.009941 1.06171 2.9213 
-1.67522 -1.33696 2.4541 -1.00807 -1.30591 1.8041 -2.53005 0.495106 2.1338 
-1.02572 -1.20837 -2.15655 -1.9607 -1.39287 1.4923 -2.68523 0.550306 -0.706694 
-2.29771 0.619406 0.586196 -3.52132 -0.083864 1.8332 -2.20122 -0.828584 -3.21749 
-0.360359 -0.889074 3.5349 -2.03605 0.250906 3.1818 -3.02225 0.471206 -0.260454 
-3.29537 -0.809574 -2.37146 -1.5212 0.796606 2.3291 -3.09881 -1.38256 1.6719 
-1.21444 0.759306 -1.13054 -2.77788 -0.951204 -2.76203 -3.54771 -0.450094 2.1149 
-2.33659 0.629806 1.0221 -2.70956 -1.28074 -2.22451 0.541141 -0.869594 3.2558 
-0.200059 -1.0535 3.209 -3.7565 0.066606 0.776996 -3.96736 -1.32836 -0.088464 
-1.8133 0.726006 -1.79118 0.764641 -0.181114 3.7865 0.174741 -1.14978 2.1319 
-0.483759 0.750706 -0.474934 0.176841 1.02751 1.6812 -2.50043 -1.38973 0.049896 
-2.05103 0.619206 2.4803 -3.1251 -0.430314 2.6633 -0.736519 -1.24703 1.4234 
-3.25456 0.137506 -1.89067 -0.771749 0.856406 1.5524 -2.14009 0.548706 -2.46516 
-2.1457 0.432206 2.8387 -3.65664 -1.32727 -1.20583 -3.56301 -1.07849 -1.80782 
-2.62956 -1.43862 -1.05281 0.668341 -0.484874 3.6608 -2.17137 -1.32987 0.457096 
-0.542059 -1.08494 -0.932734 -3.82375 -0.821974 1.6509 -2.107 0.624406 -0.558624 
-0.175859 -1.17754 1.4186 0.988841 -0.551814 3.4776 -3.67266 0.131006 -0.855224 
-1.20043 0.745406 1.0817 -4.14055 -0.733584 -0.846874 -3.09412 -1.12399 -2.22501 
-3.15 -0.062234 2.4078 -0.400659 -1.24141 1.9035 1.40064 -0.174024 3.5975 
-1.63061 0.521006 3.1152 -1.91069 0.640406 0.362426 -1.09377 -1.17071 -1.12009 
-2.03833 0.620406 -0.058894 -3.68325 -0.062744 -1.42164 -0.993219 -0.522244 3.7807 
-2.14833 -1.32593 -2.17848 -3.77788 -1.38744 0.533296 -0.112359 -1.08787 0.573196 
1.25494 0.151606 3.714 0.403441 1.16581 2.5154 1.23064 -0.844674 2.6785 
-2.34054 0.614206 -1.49679 -1.53113 0.802406 1.9419 -2.07299 0.334706 -3.20207 
-1.75149 -1.00114 -3.13824 -3.47446 -1.39411 1.1275 -1.09713 -1.2206 1.0325 
-3.00343 -1.49181 0.041216 -4.00379 -0.252654 -0.874304 -4.1851 -0.475784 -0.280294 
-1.04604 0.694406 3.1918 -3.89031 -1.15843 1.1046 -2.0101 -1.29295 -0.216314 
-1.26749 0.847406 -2.04293 -0.069359 0.820406 0.927096 -0.635559 0.800206 1.1272 
-4.22555 -0.669494 0.371026 -1.41051 -1.30551 1.426 0.167541 1.10241 2.1055 
-2.30083 0.579706 -1.99556 -1.48005 -1.3673 2.0125 -1.17728 -1.30615 2.6689 
-0.553259 -1.22172 2.8222 -2.63008 -0.422604 3.088 -0.283959 -1.21672 2.425 
0.830641 -1.0407 1.5208 -0.730489 0.730806 0.734796 0.769941 0.229206 3.8363 
-3.66993 0.168106 0.252466 0.140141 -1.08462 2.9348 0.851241 0.607406 3.7121 
-2.46826 -0.464164 -3.25423 -0.203359 0.903606 1.3867 1.39264 0.580206 3.6268 
-2.50513 0.283706 -2.75697 0.253041 -1.10969 2.5066 0.181941 0.250406 3.9055 
0.781841 -1.04365 1.9337 -3.18543 0.424706 0.220286 -3.53181 -1.19528 1.7051 
-2.09716 -1.34025 -0.863994 -1.1351 -1.21946 -1.63504 -1.90889 -0.349964 -3.59266 
0.260041 -0.803284 3.487 -3.86117 -0.444074 1.49 0.152141 -1.0998 0.946196 
-2.28538 -1.15936 -2.72513 -1.84107 0.723306 1.6461 -0.459359 1.01641 2.226 
0.201841 -1.01767 0.189156 -2.84183 0.421906 -1.71921 -1.63185 -0.014764 3.5926 
-1.56114 -1.23049 2.9694 -2.52119 0.573706 -0.265734 -3.1755 -1.46797 -1.14362 
-2.03633 -0.890544 3.2913 -1.67087 0.685006 -0.876284 -1.52428 0.747106 -2.67979 
-2.72218 -1.44559 0.558096 -2.14393 -1.2951 2.5406 -1.30239 -1.20062 0.643196 
-0.215759 0.355906 3.8424 -0.920159 -1.12464 3.252 0.225241 -1.13729 1.7495 
-0.786199 -1.09582 -0.176074 -1.304 0.689606 0.573696 -2.12661 0.680406 1.9855 
-0.612959 -1.13023 -1.43461 0.956941 1.08311 3.28 -1.56264 0.657506 -0.367044 
-0.385059 0.723606 0.010976 -3.9231 -0.495494 -1.43201 -2.57529 0.574706 0.181276 
-1.40993 -0.961854 3.4543 -1.57392 -1.21595 -0.711444 -2.63648 -1.35115 2.159 
0.762741 -1.0125 2.3731 -3.92678 -0.052834 -0.307064 0.293941 0.980106 3.3221 
0.353641 -1.10606 1.3429 -2.44674 -0.783074 3.1106 -1.76189 -1.29973 0.946196 
-2.6979 -0.063044 -3.00224 0.640841 -0.980814 2.7631 -1.05086 -1.13432 0.211156 
-0.360759 0.853606 3.2537 -2.23067 0.634006 -1.03352 -0.163959 -1.03902 -0.132964 
-0.354459 -1.05801 -0.495984 -2.66574 0.304606 2.49 -0.427759 -1.08172 0.236916 
-1.76328 -1.19699 -2.67895 -2.09688 -1.40197 2.0063 -3.09577 -1.18768 2.2491 
-4.12813 -1.08637 0.486896 -1.63054 -1.29541 -1.86847 -0.768859 0.565106 3.5068 
-1.59216 -0.658304 -3.55404 -2.15114 -1.36628 -1.50532 -1.79067 0.713506 -1.31347 
-2.85619 0.495806 1.1936 -0.925189 0.930706 2.5073 -1.69953 0.733406 -2.23954 
-0.837619 0.695306 0.283396 -2.54855 -1.42436 1.5891 -0.612259 0.793806 -0.936894 
-2.65828 -1.41713 -1.64929 0.653841 1.17101 2.9536 -4.04297 -0.364854 0.835896 
-3.52649 -1.49498 -0.025274 0.943541 1.25031 2.523 -4.22385 -0.936654 -0.173444 
0.290641 -0.136404 3.8742 -2.55732 -1.12034 2.7575 -3.28754 -1.49365 0.579396 
-0.594659 -0.048564 3.9113 -0.959359 0.694006 -0.198754 -3.08951 0.229006 1.9825 
-2.79465 0.507006 -1.18108 -3.92801 -0.950514 -1.34582 -1.63696 -1.2742 -1.2694 
-1.94028 0.529306 -2.87056 -3.54992 -0.243094 -2.0005 -0.985279 0.894306 2.0085 
-4.04955 -0.204584 0.297226 0.371741 0.972006 1.2502 -3.04676 0.034546 -2.44362 
-0.719569 -1.13703 0.634596 -3.15854 -1.34978 -1.70609 -0.279059 0.747106 0.458496 
-1.31691 0.801306 -1.5683 -2.65011 0.030536 2.9227 -3.2512 -0.368214 -2.48876 
-1.66754 -1.22909 0.297986 -3.5119 0.271306 -0.265254 -2.97461 -0.856614 2.7343 
-1.09413 0.717706 -0.654994 -0.452859 -1.15841 1.0136 -1.45016 0.338706 3.47 
-4.08508 -0.786084 1.0173 -2.01337 -0.428744 3.4855 -1.58712 -0.584934 3.5992 
-1.42808 0.758706 2.7986 0.046441 -0.556934 3.7843 -3.68467 -0.679584 -1.93645 
-0.686599 0.914906 2.9179 -1.41923 0.659306 0.105926 -1.31178 0.798806 1.5466 
-2.32103 0.633806 1.4826 -2.83646 0.532306 0.656296 -0.861149 -1.30677 2.2941 
-0.311359 -0.327694 3.9056 -3.73401 -0.074834 1.2717 -1.40706 -1.17622 -0.210924 
-2.36718 -1.40003 1.0228 0.475541 0.734206 3.6816 -4.02365 -1.18884 -0.711754 
1.30354 0.921306 3.447 -0.992569 -1.12387 -0.610844 -3.33808 0.342506 0.779696 
-0.231759 1.06271 2.5469 -1.45242 -1.24451 -2.4339 -3.10704 -1.51041 -0.552684 
-3.2232 0.382406 -0.773184 -2.74357 0.480606 1.6939 -2.58826 -1.43675 -0.474874 
-3.63821 -1.45876 -0.615664 -2.72769 0.347506 -2.2568 -1.28399 -0.180894 3.7562 
-3.28512 0.273906 -1.32817 -0.357559 0.968406 1.8373 -2.06434 0.056406 -3.46892 
-0.703919 -0.773084 3.6888 1.23444 -0.629994 3.2259 -2.96386 -1.45858 1.1042 
-0.916819 0.269506 3.7525 -2.92419 -0.517674 -2.83178 -1.48492 0.665606 -3.1513 
1.63684 -0.848154 -0.458954 3.73204 0.187906 -1.31973 -0.218059 -0.489374 -3.80652 
-1.0781 0.891706 -2.42045 2.93184 1.44701 1.7938 2.42164 1.45471 0.904796 
0.495541 -0.380754 -3.77846 0.053641 1.12291 -2.44158 0.252541 0.849906 0.570996 
0.409141 0.968806 -1.14621 2.01634 1.41401 -2.21199 2.48954 0.835106 -3.16852 
0.768841 -0.904814 -2.37124 3.32794 -0.212814 1.1734 -0.179759 0.895606 -1.22322 
2.89764 -0.330874 -1.82744 0.013941 -0.720894 -3.50961 3.46874 -0.190594 0.697996 
-0.013059 1.06741 -2.01303 0.574041 -0.871424 -2.85094 1.36414 -0.949124 1.7578 
0.341441 -0.982094 -0.316984 3.38024 0.552906 2.2561 1.67194 1.29211 -2.83576 
2.49194 -0.394084 -2.29893 2.02984 -0.587094 -2.28577 0.566441 -0.961874 -1.87842 
3.44604 0.698506 -2.34571 0.848541 1.22461 2.0761 1.31424 1.28771 2.78 
3.36714 0.017976 -1.81606 3.23234 0.051706 2.1149 2.12854 -0.497124 2.6529 
3.79654 1.26961 1.179 1.05944 -0.933104 -0.369634 3.61464 0.458406 1.8075 
1.27984 -0.896984 -0.835184 1.63444 -0.617364 2.9422 1.82794 -0.867034 1.0177 
3.86784 0.122106 0.346746 2.22504 1.17571 2.8452 1.18814 -0.197534 -3.67792 
1.83234 -0.803304 1.9916 0.211041 1.02751 -1.57938 4.01314 1.27361 0.476596 
-0.101059 0.185806 -4.00798 -0.124659 -1.00326 -2.83632 1.99094 0.889406 3.3019 
3.11404 -0.382604 -0.930404 2.52874 1.35251 2.3307 3.05694 -0.458614 -0.045094 
0.440041 -0.998044 -1.46387 1.82644 0.404306 3.5189 3.80694 1.40261 -0.673144 
-0.430259 -0.984474 -3.12433 -1.42959 0.105206 -3.78174 2.31824 -0.226994 2.9506 
3.80014 0.181506 0.958096 -0.132059 1.00131 -3.23579 2.47754 1.43431 0.434786 
1.19144 -0.736104 -2.76027 -1.15815 -1.07227 -3.03952 2.54364 -0.179114 -2.73561 
1.30854 -0.967644 1.2774 3.81844 0.036916 -0.292334 2.44704 1.39681 -0.113854 
1.37784 1.27231 1.6354 0.372641 -1.00794 -1.03635 3.34824 0.265006 -2.22723 
2.70614 1.02691 2.8036 0.804641 1.12131 -1.50191 0.059541 0.809706 -0.311584 
1.45134 -0.739234 -2.43174 0.343741 0.558806 -3.90058 2.89364 0.571106 -2.93417 
1.91924 1.29191 0.708896 0.477941 0.873206 -3.68432 1.02004 0.816806 -3.71712 
-0.507559 -0.220114 -3.97084 -0.871339 0.908506 -1.82491 -1.00247 0.877506 -2.88029 
1.92834 -0.505854 -2.70069 2.13304 1.31831 -0.575044 2.11364 1.12141 -3.07062 
1.98794 -0.788144 -0.140574 1.08154 -0.900484 -1.5866 1.73804 -0.756064 2.4354 
2.93114 0.143506 2.624 -0.338759 0.966206 -1.6779 3.36654 -0.280934 -0.452624 
1.54464 -0.527864 -2.98459 1.87864 -0.009994 -3.43745 1.62124 1.16521 -0.259554 
0.955141 -0.677624 -3.1635 0.479541 1.08611 -3.27673 1.17704 -0.857644 -2.03486 
3.19684 -0.183384 1.6611 -0.107759 -1.05805 -1.23157 2.24914 1.31221 -2.59307 
0.576841 -1.0239 0.578496 1.42364 1.33741 -2.34333 4.10074 1.18221 -0.238214 
2.08924 0.092906 3.3371 -0.763159 0.136706 -3.96694 2.04864 -0.227544 -3.08192 
3.70054 0.473606 -1.80337 -0.643559 -0.829614 -3.46871 1.61494 1.17341 0.307636 
3.82814 0.886106 -1.663 1.04454 1.12881 -3.29777 1.56294 1.19001 -0.810124 
-0.228059 0.551806 -3.88109 0.218941 -0.982404 -2.52304 2.30024 -0.574664 2.2191 
3.14574 -0.413984 0.443116 3.50744 -0.195284 0.108416 1.94494 1.33901 -1.19141 
0.712741 1.14091 1.6518 1.32164 0.496906 -3.76626 -0.113859 0.838606 -3.63262 
2.83254 -0.493464 1.4428 0.231941 -0.095884 -3.97655 2.69714 1.50151 1.323 
4.06124 0.948106 0.957796 1.41834 -0.368324 -3.37236 2.48724 1.43691 -1.04918 
2.99564 1.23671 2.26 2.36224 -0.658334 1.7346 1.55424 1.24091 1.1165 
2.13394 -0.699834 -1.35312 0.626741 0.939306 0.855396 0.962641 1.06011 -0.985534 
1.22894 -0.958444 0.811796 2.03724 1.39531 1.3429 1.10854 1.02921 -0.500484 
1.70344 1.34501 -1.78173 1.44924 -0.890044 0.039516 2.38734 -0.695494 1.2077 
3.61604 -0.063804 -0.868164 1.27524 -0.915394 2.2043 1.10494 1.25501 -1.90785 
0.288041 -0.826834 -3.20686 1.50464 1.08111 -3.30179 3.42554 1.29201 1.7499 
0.643941 0.357306 -3.94471 1.14354 1.02601 0.066126 2.30394 1.44261 -1.64876 
2.67424 -0.622824 0.391136 2.10214 -0.780244 0.270976 2.37824 1.45531 1.8445 
4.01324 0.332406 -0.723214 3.36614 1.54681 0.229086 3.01434 1.50851 -0.892014 
0.922241 0.047476 -3.87824 2.96804 0.646406 2.7332 3.78294 1.45601 -0.006234 
0.743841 0.927906 0.369276 0.550941 0.926506 -0.651724 1.76244 0.858206 -3.46172 
0.785441 -0.965424 0.039136 3.91144 0.552606 1.2802 3.35354 1.54841 -0.400284 
-0.389559 -1.09546 -2.37598 1.95314 1.36711 2.4547 3.06834 1.25181 -2.22936 
0.992941 1.10351 1.1961 3.75944 0.923206 1.7074 2.99384 1.55211 0.718696 
2.29644 -0.743554 0.741996 3.41724 1.48031 -1.07079 1.43164 1.32691 2.2069 
0.675741 -0.955924 -0.695564 4.01284 0.625006 -1.18782 1.94434 0.534006 -3.50588 
2.74034 1.46731 -0.486764 4.20724 0.885506 0.224376 0.104841 -1.03121 -2.12311 
1.13134 -0.948084 0.398946 2.86844 1.48741 -1.43443 2.52234 0.143006 -3.08693 
3.51024 1.08921 -2.01079 2.65534 1.42581 -2.07028 2.05184 1.29831 0.066136 
-1.22366 -0.271774 -3.85248 2.58184 0.234906 2.9993 2.80834 -0.374994 1.9726 
2.67954 -0.253214 2.4704 3.70054 1.26711 -1.35936 4.18094 0.748706 -0.471614 
2.53554 -0.659604 -0.082264 1.73184 -0.727054 -2.03989 0.752941 1.24621 -2.42653 
1.88274 -0.848684 1.4945 -0.019559 0.850306 -0.771854 4.08704 0.536406 0.624496 
2.73964 -0.508704 -1.40215 4.12564 0.432706 -0.049424 0.728641 -0.572354 -3.50197 
-1.2172 -0.839184 -3.42162 1.68854 -0.870954 0.546196 -0.895229 -0.556384 -3.76185 
2.26844 -0.709414 -0.535614 0.186241 0.812206 0.140706 3.29734 0.979906 2.2815 
3.57684 0.144706 1.4995 2.83784 -0.528204 -0.495564 1.88994 -0.783134 -0.895424 
-0.347959 1.01911 -2.8973 -0.755329 0.847706 -1.37913 3.29094 -0.199454 -1.36257 
1.66684 1.19791 3.0299 3.28714 1.49091 1.235 2.98474 -0.097804 -2.29048 
1.87254 1.38211 1.8772 1.36484 1.21901 -1.35928 1.68154 -0.782554 -1.67795 
-0.059659 -1.06181 -1.68901 2.29034 0.381006 -3.34832 -0.577459 1.00111 -2.16276 
1.24374 1.07141 0.684396 2.91474 -0.510524 0.930496 0.902341 -0.944574 -1.14403 
-0.839749 0.521606 -3.77508 4.04834 1.04161 -0.934924 -0.546859 1.00021 -2.57135 
2.93224 1.52111 0.098186 2.42964 0.627306 3.1725 2.30684 -0.595294 -1.81834 
1.00394 1.26361 -2.85987 3.59424 1.49321 0.682696 3.02984 0.258606 -2.68406 
2.65464 1.18411 -2.68051 -0.821239 -1.13047 -2.68153 -1.40257 0.509406 -3.54647 
-0.661849 0.763206 -3.53581 1.60514 0.186106 -3.65912 3.07644 0.948906 -2.63075 
0.030141 -1.02532 -0.732464 -0.845689 0.842506 -3.25257 1.52744 -0.844614 -1.27382 
2.52714 -0.614204 -0.945414 -0.561259 -1.1377 -1.91915 3.25304 1.39421 -1.69358 
0.767641 -1.03862 1.0488 0.639041 0.907006 -0.173444 1.73624 -0.330294 3.2994 
0.530241 1.15521 -1.99466 0.333941 1.16761 -2.84807 
CELL_TYPES 0

POINT_DATA 500
SCALARS scalars double
LOOKUP_TABLE default
-0.355993 -0.284717 -0.019346 -0.347601 -0.19391 -0.157537 -0.191702 -0.779391 -0.0944 
-0.819252 -0.799542 -0.294855 -0.617002 -0.825396 -0.299854 -0.319613 -0.347601 0.240321 
-0.46927582 -0.191702 -0.317447 -0.5422996 -0.161617 -0.836996 0.288042 -0.516347 -0.335112 
-0.316192 -0.854027 -0.045332 -0.46927582 -0.35117 -0.5915512 0.288042 0.030443 -0.471154 
0.263662 -0.016892 -0.869403 -0.191702 -0.320348 -0.799542 0.263662 -0.102328 0.288042 
-0.191702 -0.878038 -0.5754071 -0.878038 0.030443 -0.836457 -0.651255 -0.347601 0.247916 
-0.49773865 0.008836 -0.332725 -0.16112 -0.584775 -0.878038 -0.335112 -0.5209114 0.211513 
-0.191702 -0.11407 -0.848518 -0.138473 -0.357956 -0.207303 -0.854027 -0.632779 -0.533385 
0.2191147 0.21395193 0.005584 0.263662 -0.161617 0.350834 -0.617002 -0.836996 -0.819252 
-0.869403 -0.355649 -0.5748569 -0.157537 -0.5704014 -0.888553 0.356584 0.05335 -0.081358 
-0.5768894 -0.819252 -0.072623 0.288042 -0.819252 -0.748974 -0.5209114 -0.31042 -0.49773865 
-0.129024 -0.071017 0.1962441 -0.348839 -0.4407039 0.1962441 0.240321 -0.054034 0.2191147 
0.288042 -0.471154 0.030443 -0.094777 -0.323164 -0.836996 -0.878038 -0.664161 0.240321 
-0.045332 -0.347601 -0.4449111 -0.664161 -0.187979 -0.127547 -0.265258 0.263662 -0.191702 
-0.748974 -0.317447 -0.878038 -0.779391 0.263662 0.350834 -0.836457 -0.819252 -0.836996 
-0.135737 -0.748974 -0.471154 -0.888553 -0.147499 -0.187979 -0.617002 0.241728 -0.067202 
0.140357 -0.5856345 -0.321928 -0.748974 -0.878038 -0.825396 -0.094777 -0.344517 0.14883 
-0.4449111 -0.329982 -0.836996 0.240321 -0.019346 -0.881697 -0.127547 0.263662 -0.69747 
-0.651255 -0.294855 -0.843551 -0.617002 -0.819252 -0.825396 -0.5768894 -0.848518 -0.157537 
0.240321 -0.878038 0.263662 -0.316192 -0.127547 0.356584 -0.079369 -0.825396 0.366838 
-0.878038 0.23683788 -0.35117 -0.869403 0.4249499 -0.5915512 0.030443 -0.819252 -0.869403 
-0.176962 -0.067202 -0.335112 0.263662 -0.5856345 -0.878038 0.350834 0.263662 -0.127547 
-0.349781 0.432104 0.288042 -0.819252 -0.878038 0.148643 0.288042 -0.31042 0.209269 
-0.869403 -0.344517 -0.329982 0.263662 -0.770835 -0.157537 -0.347601 -0.29786 -0.207303 
-0.191702 0.030443 -0.5574883 -0.127547 -0.1126 -0.161617 -0.306371 -0.319613 -0.748974 
-0.0424358 -0.347601 -0.888553 -0.836996 0.172094 -0.5968497 0.2631875 -0.878038 -0.35117 
-0.127547 -0.617002 -0.888553 -0.332725 -0.306371 -0.888553 -0.867805 0.288042 -0.157537 
0.263662 -0.102328 0.240321 -0.46927582 0.031841 -0.836996 -0.157537 0.232839 0.350834 
0.332135 0.46585 0.293626 0.350834 0.647445 0.673533 -0.0985476 0.376167 0.50288 
0.847537 0.847537 0.4636345 -0.038556 0.465096 0.376167 0.402608 -0.128082 0.472859 
0.376167 -0.098048 -0.075841 -0.214527 0.462103 0.847537 0.390903 0.103308 -0.15273 
0.5042211 0.4249499 0.4438446 0.454091 0.441821 0.360944 0.51418 0.236272 0.476644 
0.278616 0.206901 0.356052 0.505257 0.45643711 0.11323 0.33272 0.376167 0.521521 
0.347117 -0.593184 0.42900433 0.46585 0.595944 0.478463 -0.248368 0.233124 0.514815 
-0.593184 0.31838 0.289238 0.499915 0.376167 0.681185 0.057284 -0.617002 0.417017 
0.253779 0.478463 0.68011 0.627354 -0.270784 0.462161 0.4964781 0.847537 0.8137632 
0.053751 0.347117 0.4725571 0.679015 0.376167 0.376167 0.31838 0.356584 0.350834 
0.103308 0.680831 0.847537 0.409399 0.053751 0.106473 0.429772 0.376167 0.4745 
0.152346 0.175104 0.693261 -0.028105 0.376167 0.053751 0.454418 -0.593184 0.847537 
-0.139673 0.847537 0.520666 0.253131 0.347117 0.196943 0.476907 -0.593184 0.691813 
0.492723 0.376167 0.847537 0.347117 -0.171515 0.375276 0.477464 0.478463 0.847537 
0.53213 0.376167 0.376167 0.425789 0.347117 0.666337 0.499915 0.110722 0.653994 
0.5446669 0.375276 0.649418 0.377485 0.58675 0.847537 0.252682 0.653008 0.847537 
0.847537 0.339674 0.39496 0.4745 -0.021189 0.847537 -0.150541 0.376167 0.6357446 
0.347117 0.697205 0.847537 0.444303 0.407892 0.635007 0.4745 0.6649462 0.655237 
0.347117 0.4821628 0.521521 0.672068 0.847537 0.376167 0.07927 0.499915 0.6617907 
-0.593184 0.57796 0.5937542 0.611353 0.489962 0.670849 0.403169 0.6457464 0.57796 
-0.155511 0.488672 0.2891338 0.668986 0.505257 -0.5622928 0.234326 0.619233 0.438259 
0.55025 0.847537 0.690161 0.293626 0.4498178 0.405657 0.400518 0.6247437 0.504723 
0.445161 0.103308 0.376167 0.34788 0.376167 0.505257 0.416071 0.504723 -0.071666 
0.246231 0.369413 0.27287 0.435102 0.6766662 0.53011397 0.489962 0.44177 0.351211 
0.376167 0.356584 0.454091 0.42522732 0.656687 0.402608 0.627354 0.847537 0.309462 
-0.5622928 0.3441068 0.350834 0.672515 0.435154 -0.066714 0.347117 0.514815 0.376167 
0.674607 0.4661336 0.377485 0.376167 0.6560316 0.4534758 0.5706039 -0.593184 0.350834 
0.347117 0.161081 0.4888662 -0.533474 0.350834 0.309462 0.426294 -0.593184 0.6073618 
-0.139673 0.864902 0.233124 0.376167 0.376167 
