<?xml version="1.0"?>
<VTKFile type="UnstructuredGrid" version="0.1" byte_order="LittleEndian">
   <UnstructuredGrid>
      <Piece NumberOfPoints="36" NumberOfCells="0" >
         <Points>
            <DataArray type="Float64" Name="Position" NumberOfComponents="3" format="ascii">
               0  -0.01  0
               0  -0.00666667  0
               0  -0.00333333  0
               0  0  0
               0  0.00333333  0
               0  0.00666667  0
               0  0.01  0
               0.2  -0.01  0
               0.2  -0.00666667  0
               0.2  -0.00333333  0
               0.2  0  0
               0.2  0.00333333  0
               0.2  0.00666667  0
               0.2  0.01  0
               0.0166667  -0.01  0
               0.0333333  -0.01  0
               0.05  -0.01  0
               0.0666667  -0.01  0
               0.0833333  -0.01  0
               0.1  -0.01  0
               0.116667  -0.01  0
               0.133333  -0.01  0
               0.15  -0.01  0
               0.166667  -0.01  0
               0.183333  -0.01  0
               0.0166667  0.01  0
               0.0333333  0.01  0
               0.05  0.01  0
               0.0666667  0.01  0
               0.0833333  0.01  0
               0.1  0.01  0
               0.116667  0.01  0
               0.133333  0.01  0
               0.15  0.01  0
               0.166667  0.01  0
               0.183333  0.01  0
            </DataArray>
         </Points>

         <Cells>
            <DataArray type="Int32" Name="connectivity" NumberOfComponents="1" format="ascii">

            </DataArray>
            <DataArray type="Int32" Name="offsets" NumberOfComponents="1" format="ascii">

            </DataArray>
            <DataArray type="UInt8"  Name="types" NumberOfComponents="1" format="ascii">

            </DataArray>
         </Cells>
         <PointData Scalars="Rank " Vectors="Displacement Force ">
            <DataArray type="UInt32" Name="Rank" NumberOfComponents="1" format="ascii">
               0 0 0 0 0 0 0 0 0 0 0 0 0 0 0 0 0 0 0 0 0 0 0 0 0 0 0 0 0 0 0 0 0 0 0 0
            </DataArray>
            <DataArray type="Float64" Name="Displacement" NumberOfComponents="3" format="ascii">
               1.71834e-05 1.47634e-08 0.0  1.14556e-05 9.84228e-09 0.0  5.72779e-06 4.92114e-09 0.0  0 0 0.0  -5.72779e-06 -4.92114e-09 0.0  -1.14556e-05 -9.84228e-09 0.0  -1.71834e-05 -1.47634e-08 0.0  1.68881e-05 0.000343682 0.0  1.11603e-05 0.000343677 0.0  5.43252e-06 0.000343672 0.0  -2.95268e-07 0.000343667 0.0  -6.02306e-06 0.000343662 0.0  -1.17508e-05 0.000343657 0.0  -1.74786e-05 0.000343653 0.0  1.71588e-05 2.86537e-05 0.0  1.71342e-05 5.72927e-05 0.0  1.71095e-05 8.59316e-05 0.0  1.70849e-05 0.000114571 0.0  1.70603e-05 0.000143209 0.0  1.70357e-05 0.000171848 0.0  1.70111e-05 0.000200487 0.0  1.69865e-05 0.000229126 0.0  1.69619e-05 0.000257765 0.0  1.69373e-05 0.000286404 0.0  1.69127e-05 0.000315043 0.0  -1.7208e-05 2.86242e-05 0.0  -1.72326e-05 5.72631e-05 0.0  -1.72572e-05 8.59021e-05 0.0  -1.72818e-05 0.000114541 0.0  -1.73064e-05 0.00014318 0.0  -1.7331e-05 0.000171819 0.0  -1.73556e-05 0.000200458 0.0  -1.73802e-05 0.000229097 0.0  -1.74048e-05 0.000257736 0.0  -1.74294e-05 0.000286375 0.0  -1.7454e-05 0.000315014 0.0
            </DataArray>
            <DataArray type="Float64" Name="Force" NumberOfComponents="3" format="ascii">
               0.0116948 0.0330901 0.0  1.19269 0.00593898 0.0  1.20414 0.0162989 0.0  -0.345207 0.00101347 0.0  1.21998 -0.02754 0.0  1.20867 -0.0351937 0.0  0.0172 -0.135994 0.0  0.0444882 -0.102784 0.0  0.207558 -0.020968 0.0  0.199874 -0.0196027 0.0  -0.0559502 -0.000312441 0.0  0.207481 0.0219747 0.0  0.215037 0.0201859 0.0  0.0503045 0.100337 0.0  0.469327 -0.0633567 0.0  0.245539 0.0455373 0.0  0.22381 0.16383 0.0  0.203153 0.162254 0.0  0.199666 0.162278 0.0  0.201908 0.145988 0.0  0.206299 0.10729 0.0  0.211254 0.0520535 0.0  0.22242 -0.0208088 0.0  0.224384 -0.104343 0.0  0.273347 -0.217511 0.0  0.492594 -0.305817 0.0  0.270453 -0.2905 0.0  0.241973 -0.357908 0.0  0.219177 -0.336276 0.0  0.213184 -0.310364 0.0  0.213854 -0.272608 0.0  0.21744 -0.217905 0.0  0.222412 -0.147153 0.0  0.23431 -0.0591937 0.0  0.236562 0.0443777 0.0  0.288182 0.177956 0.0
            </DataArray>
         </PointData>
      </Piece>
   </UnstructuredGrid>
</VTKFile>
