<?xml version="1.0"?>
<VTKFile type="UnstructuredGrid" version="0.1" byte_order="LittleEndian">
   <UnstructuredGrid>
      <Piece NumberOfPoints="36" NumberOfCells="0" >
         <Points>
            <DataArray type="Float64" Name="Position" NumberOfComponents="3" format="ascii">
               0  -0.01  0
               0  -0.00666667  0
               0  -0.00333333  0
               0  0  0
               0  0.00333333  0
               0  0.00666667  0
               0  0.01  0
               0.2  -0.01  0
               0.2  -0.00666667  0
               0.2  -0.00333333  0
               0.2  0  0
               0.2  0.00333333  0
               0.2  0.00666667  0
               0.2  0.01  0
               0.0166667  -0.01  0
               0.0333333  -0.01  0
               0.05  -0.01  0
               0.0666667  -0.01  0
               0.0833333  -0.01  0
               0.1  -0.01  0
               0.116667  -0.01  0
               0.133333  -0.01  0
               0.15  -0.01  0
               0.166667  -0.01  0
               0.183333  -0.01  0
               0.0166667  0.01  0
               0.0333333  0.01  0
               0.05  0.01  0
               0.0666667  0.01  0
               0.0833333  0.01  0
               0.1  0.01  0
               0.116667  0.01  0
               0.133333  0.01  0
               0.15  0.01  0
               0.166667  0.01  0
               0.183333  0.01  0
            </DataArray>
         </Points>

         <Cells>
            <DataArray type="Int32" Name="connectivity" NumberOfComponents="1" format="ascii">

            </DataArray>
            <DataArray type="Int32" Name="offsets" NumberOfComponents="1" format="ascii">

            </DataArray>
            <DataArray type="UInt8"  Name="types" NumberOfComponents="1" format="ascii">

            </DataArray>
         </Cells>
         <PointData Scalars="Rank " Vectors="Displacement Force ">
            <DataArray type="UInt32" Name="Rank" NumberOfComponents="1" format="ascii">
               0 0 0 0 0 0 0 0 0 0 0 0 0 0 0 0 0 0 0 0 0 0 0 0 0 0 0 0 0 0 0 0 0 0 0 0
            </DataArray>
            <DataArray type="Float64" Name="Displacement" NumberOfComponents="3" format="ascii">
               0.000156557 1.22558e-06 0.0  0.000104371 8.17051e-07 0.0  5.21856e-05 4.08525e-07 0.0  0 0 0.0  -5.21856e-05 -4.08525e-07 0.0  -0.000104371 -8.17051e-07 0.0  -0.000156557 -1.22558e-06 0.0  0.000132045 0.00313236 0.0  7.98597e-05 0.00313195 0.0  2.76741e-05 0.00313154 0.0  -2.45115e-05 0.00313114 0.0  -7.66971e-05 0.00313073 0.0  -0.000128883 0.00313032 0.0  -0.000181068 0.00312991 0.0  0.000154514 0.000262154 0.0  0.000152472 0.000523082 0.0  0.000150429 0.00078401 0.0  0.000148386 0.00104494 0.0  0.000146344 0.00130587 0.0  0.000144301 0.00156679 0.0  0.000142258 0.00182772 0.0  0.000140216 0.00208865 0.0  0.000138173 0.00234958 0.0  0.000136131 0.00261051 0.0  0.000134088 0.00287143 0.0  -0.000158599 0.000259702 0.0  -0.000160642 0.00052063 0.0  -0.000162685 0.000781558 0.0  -0.000164727 0.00104249 0.0  -0.00016677 0.00130341 0.0  -0.000168813 0.00156434 0.0  -0.000170855 0.00182527 0.0  -0.000172898 0.0020862 0.0  -0.00017494 0.00234713 0.0  -0.000176983 0.00260805 0.0  -0.000179026 0.00286898 0.0
            </DataArray>
            <DataArray type="Float64" Name="Force" NumberOfComponents="3" format="ascii">
               0.00421851 -0.0650427 0.0  1.1917 -0.013962 0.0  1.20166 0.0113812 0.0  -0.348822 -0.00284821 0.0  1.25606 -0.0215736 0.0  1.24697 -0.0573709 0.0  0.0178962 -0.250916 0.0  0.0409624 -0.0785343 0.0  0.181235 -0.02087 0.0  0.172143 -0.0120568 0.0  -0.0492013 -0.000705492 0.0  0.188658 0.0205599 0.0  0.197021 0.0238347 0.0  0.059004 0.0774939 0.0  0.447444 -0.405927 0.0  0.219117 -0.163787 0.0  0.196956 0.0204573 0.0  0.18299 0.0709 0.0  0.183469 0.0924633 0.0  0.186935 0.0963731 0.0  0.192255 0.0766995 0.0  0.198482 0.0387053 0.0  0.210013 -0.0177725 0.0  0.211797 -0.0876936 0.0  0.257612 -0.184024 0.0  0.518574 -0.717827 0.0  0.308036 -0.609843 0.0  0.276793 -0.635044 0.0  0.248078 -0.562501 0.0  0.237856 -0.50446 0.0  0.235011 -0.441458 0.0  0.236509 -0.367488 0.0  0.239771 -0.280902 0.0  0.250927 -0.179306 0.0  0.251948 -0.0555732 0.0  0.304516 0.0956547 0.0
            </DataArray>
         </PointData>
      </Piece>
   </UnstructuredGrid>
</VTKFile>
