<?xml version="1.0"?>
<VTKFile type="UnstructuredGrid" version="0.1" byte_order="LittleEndian">
   <UnstructuredGrid>
      <Piece NumberOfPoints="36" NumberOfCells="0" >
         <Points>
            <DataArray type="Float64" Name="Position" NumberOfComponents="3" format="ascii">
               0  -0.01  0
               0  -0.00666667  0
               0  -0.00333333  0
               0  0  0
               0  0.00333333  0
               0  0.00666667  0
               0  0.01  0
               0.2  -0.01  0
               0.2  -0.00666667  0
               0.2  -0.00333333  0
               0.2  0  0
               0.2  0.00333333  0
               0.2  0.00666667  0
               0.2  0.01  0
               0.0166667  -0.01  0
               0.0333333  -0.01  0
               0.05  -0.01  0
               0.0666667  -0.01  0
               0.0833333  -0.01  0
               0.1  -0.01  0
               0.116667  -0.01  0
               0.133333  -0.01  0
               0.15  -0.01  0
               0.166667  -0.01  0
               0.183333  -0.01  0
               0.0166667  0.01  0
               0.0333333  0.01  0
               0.05  0.01  0
               0.0666667  0.01  0
               0.0833333  0.01  0
               0.1  0.01  0
               0.116667  0.01  0
               0.133333  0.01  0
               0.15  0.01  0
               0.166667  0.01  0
               0.183333  0.01  0
            </DataArray>
         </Points>

         <Cells>
            <DataArray type="Int32" Name="connectivity" NumberOfComponents="1" format="ascii">

            </DataArray>
            <DataArray type="Int32" Name="offsets" NumberOfComponents="1" format="ascii">

            </DataArray>
            <DataArray type="UInt8"  Name="types" NumberOfComponents="1" format="ascii">

            </DataArray>
         </Cells>
         <PointData Scalars="Rank " Vectors="Displacement Force ">
            <DataArray type="UInt32" Name="Rank" NumberOfComponents="1" format="ascii">
               0 0 0 0 0 0 0 0 0 0 0 0 0 0 0 0 0 0 0 0 0 0 0 0 0 0 0 0 0 0 0 0 0 0 0 0
            </DataArray>
            <DataArray type="Float64" Name="Displacement" NumberOfComponents="3" format="ascii">
               1.39277e-05 9.69911e-09 0.0  9.28516e-06 6.46607e-09 0.0  4.64258e-06 3.23304e-09 0.0  0 0 0.0  -4.64258e-06 -3.23304e-09 0.0  -9.28516e-06 -6.46607e-09 0.0  -1.39277e-05 -9.69911e-09 0.0  1.37338e-05 0.000278565 0.0  9.09118e-06 0.000278561 0.0  4.4486e-06 0.000278558 0.0  -1.93982e-07 0.000278555 0.0  -4.83656e-06 0.000278552 0.0  -9.47914e-06 0.000278548 0.0  -1.41217e-05 0.000278545 0.0  1.39116e-05 2.32226e-05 0.0  1.38954e-05 4.64355e-05 0.0  1.38792e-05 6.96484e-05 0.0  1.38631e-05 9.28613e-05 0.0  1.38469e-05 0.000116074 0.0  1.38308e-05 0.000139287 0.0  1.38146e-05 0.0001625 0.0  1.37984e-05 0.000185713 0.0  1.37823e-05 0.000208926 0.0  1.37661e-05 0.000232139 0.0  1.37499e-05 0.000255352 0.0  -1.39439e-05 2.32032e-05 0.0  -1.39601e-05 4.64161e-05 0.0  -1.39762e-05 6.9629e-05 0.0  -1.39924e-05 9.28419e-05 0.0  -1.40086e-05 0.000116055 0.0  -1.40247e-05 0.000139268 0.0  -1.40409e-05 0.000162481 0.0  -1.40571e-05 0.000185694 0.0  -1.40732e-05 0.000208906 0.0  -1.40894e-05 0.000232119 0.0  -1.41056e-05 0.000255332 0.0
            </DataArray>
            <DataArray type="Float64" Name="Force" NumberOfComponents="3" format="ascii">
               0.00872502 0.0658374 0.0  1.21698 0.00955842 0.0  1.2292 0.0192079 0.0  -0.352145 0.000705907 0.0  1.24341 -0.0298793 0.0  1.23122 -0.0361875 0.0  0.0150483 -0.158741 0.0  0.0464433 -0.0766345 0.0  0.188168 -0.0179623 0.0  0.179859 -0.0166778 0.0  -0.0497953 -0.000632914 0.0  0.184758 0.0210473 0.0  0.19281 0.0206565 0.0  0.0528001 0.0792251 0.0  0.469755 0.025473 0.0  0.245961 0.130387 0.0  0.224315 0.255559 0.0  0.203884 0.255057 0.0  0.200219 0.255608 0.0  0.202247 0.239652 0.0  0.206639 0.201145 0.0  0.211631 0.145142 0.0  0.222603 0.0711824 0.0  0.224068 -0.0210477 0.0  0.272057 -0.140584 0.0  0.49446 -0.353286 0.0  0.272387 -0.336549 0.0  0.244403 -0.402039 0.0  0.221097 -0.373356 0.0  0.214909 -0.342974 0.0  0.215329 -0.302189 0.0  0.218844 -0.246684 0.0  0.223817 -0.177302 0.0  0.235751 -0.0929201 0.0  0.237748 0.00854222 0.0  0.288243 0.134782 0.0
            </DataArray>
         </PointData>
      </Piece>
   </UnstructuredGrid>
</VTKFile>
