<?xml version="1.0"?>
<VTKFile type="UnstructuredGrid" version="0.1" byte_order="LittleEndian">
   <UnstructuredGrid>
      <Piece NumberOfPoints="36" NumberOfCells="0" >
         <Points>
            <DataArray type="Float64" Name="Position" NumberOfComponents="3" format="ascii">
               0  -0.01  0
               0  -0.00666667  0
               0  -0.00333333  0
               0  0  0
               0  0.00333333  0
               0  0.00666667  0
               0  0.01  0
               0.2  -0.01  0
               0.2  -0.00666667  0
               0.2  -0.00333333  0
               0.2  0  0
               0.2  0.00333333  0
               0.2  0.00666667  0
               0.2  0.01  0
               0.0166667  -0.01  0
               0.0333333  -0.01  0
               0.05  -0.01  0
               0.0666667  -0.01  0
               0.0833333  -0.01  0
               0.1  -0.01  0
               0.116667  -0.01  0
               0.133333  -0.01  0
               0.15  -0.01  0
               0.166667  -0.01  0
               0.183333  -0.01  0
               0.0166667  0.01  0
               0.0333333  0.01  0
               0.05  0.01  0
               0.0666667  0.01  0
               0.0833333  0.01  0
               0.1  0.01  0
               0.116667  0.01  0
               0.133333  0.01  0
               0.15  0.01  0
               0.166667  0.01  0
               0.183333  0.01  0
            </DataArray>
         </Points>

         <Cells>
            <DataArray type="Int32" Name="connectivity" NumberOfComponents="1" format="ascii">

            </DataArray>
            <DataArray type="Int32" Name="offsets" NumberOfComponents="1" format="ascii">

            </DataArray>
            <DataArray type="UInt8"  Name="types" NumberOfComponents="1" format="ascii">

            </DataArray>
         </Cells>
         <PointData Scalars="Rank " Vectors="Displacement Force ">
            <DataArray type="UInt32" Name="Rank" NumberOfComponents="1" format="ascii">
               0 0 0 0 0 0 0 0 0 0 0 0 0 0 0 0 0 0 0 0 0 0 0 0 0 0 0 0 0 0 0 0 0 0 0 0
            </DataArray>
            <DataArray type="Float64" Name="Displacement" NumberOfComponents="3" format="ascii">
               0.000162685 1.32341e-06 0.0  0.000108457 8.82276e-07 0.0  5.42285e-05 4.41138e-07 0.0  0 0 0.0  -5.42285e-05 -4.41138e-07 0.0  -0.000108457 -8.82276e-07 0.0  -0.000162685 -1.32341e-06 0.0  0.000136217 0.00325503 0.0  8.19886e-05 0.00325459 0.0  2.77602e-05 0.00325415 0.0  -2.64683e-05 0.00325371 0.0  -8.06968e-05 0.00325327 0.0  -0.000134925 0.00325283 0.0  -0.000189154 0.00325238 0.0  0.00016048 0.000272466 0.0  0.000158274 0.000543608 0.0  0.000156068 0.00081475 0.0  0.000153863 0.00108589 0.0  0.000151657 0.00135704 0.0  0.000149451 0.00162818 0.0  0.000147246 0.00189932 0.0  0.00014504 0.00217046 0.0  0.000142834 0.0024416 0.0  0.000140628 0.00271275 0.0  0.000138423 0.00298389 0.0  -0.000164891 0.000269819 0.0  -0.000167097 0.000540961 0.0  -0.000169302 0.000812104 0.0  -0.000171508 0.00108325 0.0  -0.000173714 0.00135439 0.0  -0.00017592 0.00162553 0.0  -0.000178125 0.00189667 0.0  -0.000180331 0.00216782 0.0  -0.000182537 0.00243896 0.0  -0.000184742 0.0027101 0.0  -0.000186948 0.00298124 0.0
            </DataArray>
            <DataArray type="Float64" Name="Force" NumberOfComponents="3" format="ascii">
               0.00401926 -0.0682977 0.0  1.19148 -0.0146142 0.0  1.20137 0.0113266 0.0  -0.34889 -0.00292513 0.0  1.25708 -0.0212967 0.0  1.24806 -0.057791 0.0  0.0180656 -0.254234 0.0  0.0409371 -0.0776177 0.0  0.18084 -0.0206986 0.0  0.171708 -0.0119045 0.0  -0.0490585 -0.000716141 0.0  0.188109 0.0206315 0.0  0.19649 0.0239489 0.0  0.059143 0.0773328 0.0  0.44676 -0.416591 0.0  0.21815 -0.169269 0.0  0.195632 0.0169208 0.0  0.181815 0.0690751 0.0  0.182438 0.0918562 0.0  0.185923 0.0967405 0.0  0.19132 0.0777863 0.0  0.197754 0.04034 0.0  0.209433 -0.0155861 0.0  0.211376 -0.0853535 0.0  0.257341 -0.181568 0.0  0.520083 -0.729381 0.0  0.309989 -0.617681 0.0  0.278487 -0.640905 0.0  0.249587 -0.56654 0.0  0.23916 -0.507227 0.0  0.236087 -0.443249 0.0  0.237397 -0.368526 0.0  0.240493 -0.281454 0.0  0.251497 -0.179612 0.0  0.252319 -0.0558172 0.0  0.304844 0.0953038 0.0
            </DataArray>
         </PointData>
      </Piece>
   </UnstructuredGrid>
</VTKFile>
