<?xml version="1.0"?>
<VTKFile type="UnstructuredGrid" version="0.1" byte_order="LittleEndian">
   <UnstructuredGrid>
      <Piece NumberOfPoints="36" NumberOfCells="0" >
         <Points>
            <DataArray type="Float64" Name="Position" NumberOfComponents="3" format="ascii">
               0  -0.01  0
               0  -0.00666667  0
               0  -0.00333333  0
               0  0  0
               0  0.00333333  0
               0  0.00666667  0
               0  0.01  0
               0.2  -0.01  0
               0.2  -0.00666667  0
               0.2  -0.00333333  0
               0.2  0  0
               0.2  0.00333333  0
               0.2  0.00666667  0
               0.2  0.01  0
               0.0166667  -0.01  0
               0.0333333  -0.01  0
               0.05  -0.01  0
               0.0666667  -0.01  0
               0.0833333  -0.01  0
               0.1  -0.01  0
               0.116667  -0.01  0
               0.133333  -0.01  0
               0.15  -0.01  0
               0.166667  -0.01  0
               0.183333  -0.01  0
               0.0166667  0.01  0
               0.0333333  0.01  0
               0.05  0.01  0
               0.0666667  0.01  0
               0.0833333  0.01  0
               0.1  0.01  0
               0.116667  0.01  0
               0.133333  0.01  0
               0.15  0.01  0
               0.166667  0.01  0
               0.183333  0.01  0
            </DataArray>
         </Points>

         <Cells>
            <DataArray type="Int32" Name="connectivity" NumberOfComponents="1" format="ascii">

            </DataArray>
            <DataArray type="Int32" Name="offsets" NumberOfComponents="1" format="ascii">

            </DataArray>
            <DataArray type="UInt8"  Name="types" NumberOfComponents="1" format="ascii">

            </DataArray>
         </Cells>
         <PointData Scalars="Rank " Vectors="Displacement Force ">
            <DataArray type="UInt32" Name="Rank" NumberOfComponents="1" format="ascii">
               0 0 0 0 0 0 0 0 0 0 0 0 0 0 0 0 0 0 0 0 0 0 0 0 0 0 0 0 0 0 0 0 0 0 0 0
            </DataArray>
            <DataArray type="Float64" Name="Displacement" NumberOfComponents="3" format="ascii">
               -9.02988e-05 4.07702e-07 0.0  -6.01992e-05 2.71801e-07 0.0  -3.00996e-05 1.35901e-07 0.0  0 0 0.0  3.00996e-05 -1.35901e-07 0.0  6.01992e-05 -2.71801e-07 0.0  9.02988e-05 -4.07702e-07 0.0  -9.84528e-05 -0.00180557 0.0  -6.83532e-05 -0.0018057 0.0  -3.82536e-05 -0.00180584 0.0  -8.15404e-06 -0.00180598 0.0  2.19456e-05 -0.00180611 0.0  5.20452e-05 -0.00180625 0.0  8.21448e-05 -0.00180638 0.0  -9.09783e-05 -0.00015009 0.0  -9.16578e-05 -0.000300588 0.0  -9.23373e-05 -0.000451086 0.0  -9.30168e-05 -0.000601584 0.0  -9.36963e-05 -0.000752082 0.0  -9.43758e-05 -0.00090258 0.0  -9.50553e-05 -0.00105308 0.0  -9.57348e-05 -0.00120358 0.0  -9.64143e-05 -0.00135407 0.0  -9.70938e-05 -0.00150457 0.0  -9.77733e-05 -0.00165507 0.0  8.96193e-05 -0.000150906 0.0  8.89398e-05 -0.000301404 0.0  8.82603e-05 -0.000451902 0.0  8.75808e-05 -0.0006024 0.0  8.69013e-05 -0.000752898 0.0  8.62218e-05 -0.000903396 0.0  8.55423e-05 -0.00105389 0.0  8.48628e-05 -0.00120439 0.0  8.41833e-05 -0.00135489 0.0  8.35038e-05 -0.00150539 0.0  8.28243e-05 -0.00165589 0.0
            </DataArray>
            <DataArray type="Float64" Name="Force" NumberOfComponents="3" format="ascii">
               0.010741 0.16875 0.0  1.23825 0.0314996 0.0  1.24361 0.0199264 0.0  -0.348701 0.00283403 0.0  1.22417 -0.0248343 0.0  1.21699 -0.0180274 0.0  0.0124679 -0.0535575 0.0  0.0542637 -0.0706581 0.0  0.195934 -0.0190846 0.0  0.187013 -0.0184136 0.0  -0.0502215 0.000340605 0.0  0.182277 0.0166561 0.0  0.19163 0.0224227 0.0  0.0444169 0.0855293 0.0  0.484433 0.401563 0.0  0.263961 0.384673 0.0  0.234468 0.456401 0.0  0.213288 0.445129 0.0  0.207909 0.424157 0.0  0.210211 0.388284 0.0  0.215317 0.334106 0.0  0.220748 0.261807 0.0  0.233832 0.171399 0.0  0.23743 0.0570518 0.0  0.291127 -0.0856738 0.0  0.485968 0.0239491 0.0  0.263691 -0.0577576 0.0  0.233997 -0.147863 0.0  0.210513 -0.153096 0.0  0.206387 -0.163961 0.0  0.208722 -0.149738 0.0  0.212085 -0.112304 0.0  0.216084 -0.0602286 0.0  0.226321 0.00816407 0.0  0.225678 0.0877913 0.0  0.270223 0.192509 0.0
            </DataArray>
         </PointData>
      </Piece>
   </UnstructuredGrid>
</VTKFile>
