<?xml version="1.0"?>
<VTKFile type="UnstructuredGrid" version="0.1" byte_order="LittleEndian">
   <UnstructuredGrid>
      <Piece NumberOfPoints="36" NumberOfCells="0" >
         <Points>
            <DataArray type="Float64" Name="Position" NumberOfComponents="3" format="ascii">
               0  -0.01  0
               0  -0.00666667  0
               0  -0.00333333  0
               0  0  0
               0  0.00333333  0
               0  0.00666667  0
               0  0.01  0
               0.2  -0.01  0
               0.2  -0.00666667  0
               0.2  -0.00333333  0
               0.2  0  0
               0.2  0.00333333  0
               0.2  0.00666667  0
               0.2  0.01  0
               0.0166667  -0.01  0
               0.0333333  -0.01  0
               0.05  -0.01  0
               0.0666667  -0.01  0
               0.0833333  -0.01  0
               0.1  -0.01  0
               0.116667  -0.01  0
               0.133333  -0.01  0
               0.15  -0.01  0
               0.166667  -0.01  0
               0.183333  -0.01  0
               0.0166667  0.01  0
               0.0333333  0.01  0
               0.05  0.01  0
               0.0666667  0.01  0
               0.0833333  0.01  0
               0.1  0.01  0
               0.116667  0.01  0
               0.133333  0.01  0
               0.15  0.01  0
               0.166667  0.01  0
               0.183333  0.01  0
            </DataArray>
         </Points>

         <Cells>
            <DataArray type="Int32" Name="connectivity" NumberOfComponents="1" format="ascii">

            </DataArray>
            <DataArray type="Int32" Name="offsets" NumberOfComponents="1" format="ascii">

            </DataArray>
            <DataArray type="UInt8"  Name="types" NumberOfComponents="1" format="ascii">

            </DataArray>
         </Cells>
         <PointData Scalars="Rank " Vectors="Displacement Force ">
            <DataArray type="UInt32" Name="Rank" NumberOfComponents="1" format="ascii">
               0 0 0 0 0 0 0 0 0 0 0 0 0 0 0 0 0 0 0 0 0 0 0 0 0 0 0 0 0 0 0 0 0 0 0 0
            </DataArray>
            <DataArray type="Float64" Name="Displacement" NumberOfComponents="3" format="ascii">
               0.000137743 9.48696e-07 0.0  9.18284e-05 6.32464e-07 0.0  4.59142e-05 3.16232e-07 0.0  0 0 0.0  -4.59142e-05 -3.16232e-07 0.0  -9.18284e-05 -6.32464e-07 0.0  -0.000137743 -9.48696e-07 0.0  0.000118769 0.0027558 0.0  7.28545e-05 0.00275548 0.0  2.69403e-05 0.00275517 0.0  -1.89739e-05 0.00275485 0.0  -6.48881e-05 0.00275453 0.0  -0.000110802 0.00275422 0.0  -0.000156716 0.0027539 0.0  0.000136161 0.00023052 0.0  0.00013458 0.000460091 0.0  0.000132999 0.000689661 0.0  0.000131418 0.000919232 0.0  0.000129837 0.0011488 0.0  0.000128256 0.00137837 0.0  0.000126674 0.00160795 0.0  0.000125093 0.00183752 0.0  0.000123512 0.00206709 0.0  0.000121931 0.00229666 0.0  0.00012035 0.00252623 0.0  -0.000139324 0.000228622 0.0  -0.000140905 0.000458193 0.0  -0.000142486 0.000687764 0.0  -0.000144067 0.000917335 0.0  -0.000145648 0.00114691 0.0  -0.00014723 0.00137648 0.0  -0.000148811 0.00160605 0.0  -0.000150392 0.00183562 0.0  -0.000151973 0.00206519 0.0  -0.000153554 0.00229476 0.0  -0.000155135 0.00252433 0.0
            </DataArray>
            <DataArray type="Float64" Name="Force" NumberOfComponents="3" format="ascii">
               0.003463 -0.022986 0.0  1.19923 -0.00656275 0.0  1.21163 0.0158077 0.0  -0.351408 0.000266407 0.0  1.25549 -0.026719 0.0  1.24329 -0.0465526 0.0  0.0186225 -0.222642 0.0  0.0440535 -0.0726885 0.0  0.184619 -0.0166719 0.0  0.176182 -0.0139731 0.0  -0.0494314 -0.0012552 0.0  0.18578 0.0233347 0.0  0.193668 0.0220282 0.0  0.0550856 0.0838255 0.0  0.444767 -0.261444 0.0  0.216556 -0.0511688 0.0  0.193925 0.122379 0.0  0.179279 0.164494 0.0  0.179808 0.181937 0.0  0.184016 0.181314 0.0  0.190224 0.156631 0.0  0.197414 0.112534 0.0  0.210379 0.0490554 0.0  0.214514 -0.0328731 0.0  0.263984 -0.141936 0.0  0.518185 -0.597388 0.0  0.307256 -0.51101 0.0  0.277359 -0.539514 0.0  0.248879 -0.471665 0.0  0.238874 -0.415877 0.0  0.235046 -0.355217 0.0  0.235226 -0.284976 0.0  0.237487 -0.204281 0.0  0.246956 -0.110415 0.0  0.246037 -0.00054774 0.0  0.295102 0.134871 0.0
            </DataArray>
         </PointData>
      </Piece>
   </UnstructuredGrid>
</VTKFile>
