<?xml version="1.0"?>
<VTKFile type="UnstructuredGrid" version="0.1" byte_order="LittleEndian">
   <UnstructuredGrid>
      <Piece NumberOfPoints="36" NumberOfCells="0" >
         <Points>
            <DataArray type="Float64" Name="Position" NumberOfComponents="3" format="ascii">
               0  -0.01  0
               0  -0.00666667  0
               0  -0.00333333  0
               0  0  0
               0  0.00333333  0
               0  0.00666667  0
               0  0.01  0
               0.2  -0.01  0
               0.2  -0.00666667  0
               0.2  -0.00333333  0
               0.2  0  0
               0.2  0.00333333  0
               0.2  0.00666667  0
               0.2  0.01  0
               0.0166667  -0.01  0
               0.0333333  -0.01  0
               0.05  -0.01  0
               0.0666667  -0.01  0
               0.0833333  -0.01  0
               0.1  -0.01  0
               0.116667  -0.01  0
               0.133333  -0.01  0
               0.15  -0.01  0
               0.166667  -0.01  0
               0.183333  -0.01  0
               0.0166667  0.01  0
               0.0333333  0.01  0
               0.05  0.01  0
               0.0666667  0.01  0
               0.0833333  0.01  0
               0.1  0.01  0
               0.116667  0.01  0
               0.133333  0.01  0
               0.15  0.01  0
               0.166667  0.01  0
               0.183333  0.01  0
            </DataArray>
         </Points>

         <Cells>
            <DataArray type="Int32" Name="connectivity" NumberOfComponents="1" format="ascii">

            </DataArray>
            <DataArray type="Int32" Name="offsets" NumberOfComponents="1" format="ascii">

            </DataArray>
            <DataArray type="UInt8"  Name="types" NumberOfComponents="1" format="ascii">

            </DataArray>
         </Cells>
         <PointData Scalars="Rank " Vectors="Displacement Force ">
            <DataArray type="UInt32" Name="Rank" NumberOfComponents="1" format="ascii">
               0 0 0 0 0 0 0 0 0 0 0 0 0 0 0 0 0 0 0 0 0 0 0 0 0 0 0 0 0 0 0 0 0 0 0 0
            </DataArray>
            <DataArray type="Float64" Name="Displacement" NumberOfComponents="3" format="ascii">
               -6.96283e-05 2.42408e-07 0.0  -4.64189e-05 1.61605e-07 0.0  -2.32094e-05 8.08026e-08 0.0  0 0 0.0  2.32094e-05 -8.08026e-08 0.0  4.64189e-05 -1.61605e-07 0.0  6.96283e-05 -2.42408e-07 0.0  -7.44765e-05 -0.00139232 0.0  -5.1267e-05 -0.0013924 0.0  -2.80576e-05 -0.00139249 0.0  -4.84816e-06 -0.00139257 0.0  1.83613e-05 -0.00139265 0.0  4.15707e-05 -0.00139273 0.0  6.47801e-05 -0.00139281 0.0  -7.00323e-05 -0.000115805 0.0  -7.04363e-05 -0.000231852 0.0  -7.08403e-05 -0.000347899 0.0  -7.12444e-05 -0.000463946 0.0  -7.16484e-05 -0.000579993 0.0  -7.20524e-05 -0.000696041 0.0  -7.24564e-05 -0.000812088 0.0  -7.28604e-05 -0.000928135 0.0  -7.32644e-05 -0.00104418 0.0  -7.36684e-05 -0.00116023 0.0  -7.40724e-05 -0.00127628 0.0  6.92243e-05 -0.00011629 0.0  6.88203e-05 -0.000232337 0.0  6.84163e-05 -0.000348384 0.0  6.80122e-05 -0.000464431 0.0  6.76082e-05 -0.000580478 0.0  6.72042e-05 -0.000696525 0.0  6.68002e-05 -0.000812573 0.0  6.63962e-05 -0.00092862 0.0  6.59922e-05 -0.00104467 0.0  6.55882e-05 -0.00116071 0.0  6.51842e-05 -0.00127676 0.0
            </DataArray>
            <DataArray type="Float64" Name="Force" NumberOfComponents="3" format="ascii">
               0.0111666 0.112601 0.0  1.23143 0.0145502 0.0  1.2382 0.0182751 0.0  -0.349746 0.00243646 0.0  1.23523 -0.0320183 0.0  1.22816 -0.0328742 0.0  0.012079 -0.122495 0.0  0.0505723 -0.0800201 0.0  0.166694 -0.0202097 0.0  0.158224 -0.0185582 0.0  -0.0477204 0.000590176 0.0  0.192921 0.0163227 0.0  0.20308 0.0159038 0.0  0.0500359 0.074928 0.0  0.483463 0.174317 0.0  0.260265 0.190161 0.0  0.233084 0.261006 0.0  0.211369 0.243472 0.0  0.205462 0.216088 0.0  0.206944 0.179414 0.0  0.211033 0.129392 0.0  0.215168 0.0690729 0.0  0.226585 -0.00119057 0.0  0.228556 -0.0770446 0.0  0.277817 -0.169413 0.0  0.486351 -0.225579 0.0  0.263497 -0.268262 0.0  0.234713 -0.368529 0.0  0.211144 -0.372699 0.0  0.207029 -0.382567 0.0  0.208428 -0.364927 0.0  0.213092 -0.321401 0.0  0.218409 -0.256111 0.0  0.230331 -0.168074 0.0  0.231968 -0.0514791 0.0  0.28234 0.101457 0.0
            </DataArray>
         </PointData>
      </Piece>
   </UnstructuredGrid>
</VTKFile>
