<?xml version="1.0"?>
<VTKFile type="UnstructuredGrid" version="0.1" byte_order="LittleEndian">
   <UnstructuredGrid>
      <Piece NumberOfPoints="36" NumberOfCells="0" >
         <Points>
            <DataArray type="Float64" Name="Position" NumberOfComponents="3" format="ascii">
               0  -0.01  0
               0  -0.00666667  0
               0  -0.00333333  0
               0  0  0
               0  0.00333333  0
               0  0.00666667  0
               0  0.01  0
               0.2  -0.01  0
               0.2  -0.00666667  0
               0.2  -0.00333333  0
               0.2  0  0
               0.2  0.00333333  0
               0.2  0.00666667  0
               0.2  0.01  0
               0.0166667  -0.01  0
               0.0333333  -0.01  0
               0.05  -0.01  0
               0.0666667  -0.01  0
               0.0833333  -0.01  0
               0.1  -0.01  0
               0.116667  -0.01  0
               0.133333  -0.01  0
               0.15  -0.01  0
               0.166667  -0.01  0
               0.183333  -0.01  0
               0.0166667  0.01  0
               0.0333333  0.01  0
               0.05  0.01  0
               0.0666667  0.01  0
               0.0833333  0.01  0
               0.1  0.01  0
               0.116667  0.01  0
               0.133333  0.01  0
               0.15  0.01  0
               0.166667  0.01  0
               0.183333  0.01  0
            </DataArray>
         </Points>

         <Cells>
            <DataArray type="Int32" Name="connectivity" NumberOfComponents="1" format="ascii">

            </DataArray>
            <DataArray type="Int32" Name="offsets" NumberOfComponents="1" format="ascii">

            </DataArray>
            <DataArray type="UInt8"  Name="types" NumberOfComponents="1" format="ascii">

            </DataArray>
         </Cells>
         <PointData Scalars="Rank " Vectors="Displacement Force ">
            <DataArray type="UInt32" Name="Rank" NumberOfComponents="1" format="ascii">
               0 0 0 0 0 0 0 0 0 0 0 0 0 0 0 0 0 0 0 0 0 0 0 0 0 0 0 0 0 0 0 0 0 0 0 0
            </DataArray>
            <DataArray type="Float64" Name="Displacement" NumberOfComponents="3" format="ascii">
               0.000124226 7.71639e-07 0.0  8.28176e-05 5.14426e-07 0.0  4.14088e-05 2.57213e-07 0.0  0 0 0.0  -4.14088e-05 -2.57213e-07 0.0  -8.28176e-05 -5.14426e-07 0.0  -0.000124226 -7.71639e-07 0.0  0.000108794 0.0024853 0.0  6.73848e-05 0.00248504 0.0  2.5976e-05 0.00248478 0.0  -1.54328e-05 0.00248453 0.0  -5.68416e-05 0.00248427 0.0  -9.82503e-05 0.00248401 0.0  -0.000139659 0.00248375 0.0  0.00012294 0.000207816 0.0  0.000121654 0.000414859 0.0  0.000120368 0.000621903 0.0  0.000119082 0.000828947 0.0  0.000117796 0.00103599 0.0  0.00011651 0.00124303 0.0  0.000115224 0.00145008 0.0  0.000113938 0.00165712 0.0  0.000112652 0.00186417 0.0  0.000111366 0.00207121 0.0  0.00011008 0.00227825 0.0  -0.000125512 0.000206272 0.0  -0.000126798 0.000413316 0.0  -0.000128085 0.00062036 0.0  -0.000129371 0.000827404 0.0  -0.000130657 0.00103445 0.0  -0.000131943 0.00124149 0.0  -0.000133229 0.00144854 0.0  -0.000134515 0.00165558 0.0  -0.000135801 0.00186262 0.0  -0.000137087 0.00206967 0.0  -0.000138373 0.00227671 0.0
            </DataArray>
            <DataArray type="Float64" Name="Force" NumberOfComponents="3" format="ascii">
               0.00569587 -0.0458455 0.0  1.19241 -0.00959851 0.0  1.20265 0.012012 0.0  -0.348169 -0.00245418 0.0  1.2492 -0.0228768 0.0  1.23974 -0.0540872 0.0  0.0172792 -0.229026 0.0  0.0412554 -0.0842206 0.0  0.18526 -0.0216709 0.0  0.176438 -0.0130241 0.0  -0.0503767 -0.000652689 0.0  0.192504 0.0203295 0.0  0.200728 0.023604 0.0  0.057559 0.0809373 0.0  0.452166 -0.34022 0.0  0.225231 -0.126281 0.0  0.203494 0.0451409 0.0  0.188394 0.0853514 0.0  0.188101 0.100727 0.0  0.191307 0.0995046 0.0  0.196227 0.0756016 0.0  0.201789 0.0340592 0.0  0.212888 -0.0255816 0.0  0.214146 -0.0973061 0.0  0.259635 -0.195981 0.0  0.511245 -0.640804 0.0  0.298388 -0.553985 0.0  0.268493 -0.589106 0.0  0.240686 -0.526287 0.0  0.231568 -0.475101 0.0  0.22974 -0.417333 0.0  0.232082 -0.347378 0.0  0.235888 -0.263805 0.0  0.247548 -0.164287 0.0  0.249102 -0.0426947 0.0  0.301522 0.107118 0.0
            </DataArray>
         </PointData>
      </Piece>
   </UnstructuredGrid>
</VTKFile>
