<?xml version="1.0"?>
<VTKFile type="UnstructuredGrid" version="0.1" byte_order="LittleEndian">
   <UnstructuredGrid>
      <Piece NumberOfPoints="36" NumberOfCells="0" >
         <Points>
            <DataArray type="Float64" Name="Position" NumberOfComponents="3" format="ascii">
               0  -0.01  0
               0  -0.00666667  0
               0  -0.00333333  0
               0  0  0
               0  0.00333333  0
               0  0.00666667  0
               0  0.01  0
               0.2  -0.01  0
               0.2  -0.00666667  0
               0.2  -0.00333333  0
               0.2  0  0
               0.2  0.00333333  0
               0.2  0.00666667  0
               0.2  0.01  0
               0.0166667  -0.01  0
               0.0333333  -0.01  0
               0.05  -0.01  0
               0.0666667  -0.01  0
               0.0833333  -0.01  0
               0.1  -0.01  0
               0.116667  -0.01  0
               0.133333  -0.01  0
               0.15  -0.01  0
               0.166667  -0.01  0
               0.183333  -0.01  0
               0.0166667  0.01  0
               0.0333333  0.01  0
               0.05  0.01  0
               0.0666667  0.01  0
               0.0833333  0.01  0
               0.1  0.01  0
               0.116667  0.01  0
               0.133333  0.01  0
               0.15  0.01  0
               0.166667  0.01  0
               0.183333  0.01  0
            </DataArray>
         </Points>

         <Cells>
            <DataArray type="Int32" Name="connectivity" NumberOfComponents="1" format="ascii">

            </DataArray>
            <DataArray type="Int32" Name="offsets" NumberOfComponents="1" format="ascii">

            </DataArray>
            <DataArray type="UInt8"  Name="types" NumberOfComponents="1" format="ascii">

            </DataArray>
         </Cells>
         <PointData Scalars="Rank " Vectors="Displacement Force ">
            <DataArray type="UInt32" Name="Rank" NumberOfComponents="1" format="ascii">
               0 0 0 0 0 0 0 0 0 0 0 0 0 0 0 0 0 0 0 0 0 0 0 0 0 0 0 0 0 0 0 0 0 0 0 0
            </DataArray>
            <DataArray type="Float64" Name="Displacement" NumberOfComponents="3" format="ascii">
               -1.32642e-07 8.79701e-13 0.0  -8.84283e-08 5.86468e-13 0.0  -4.42141e-08 2.93234e-13 0.0  0 0 0.0  4.42141e-08 -2.93234e-13 0.0  8.84283e-08 -5.86468e-13 0.0  1.32642e-07 -8.79701e-13 0.0  -1.3266e-07 -2.65285e-06 0.0  -8.84459e-08 -2.65285e-06 0.0  -4.42317e-08 -2.65285e-06 0.0  -1.7594e-11 -2.65285e-06 0.0  4.41965e-08 -2.65285e-06 0.0  8.84107e-08 -2.65285e-06 0.0  1.32625e-07 -2.65285e-06 0.0  -1.32644e-07 -2.2107e-07 0.0  -1.32645e-07 -4.4214e-07 0.0  -1.32647e-07 -6.63211e-07 0.0  -1.32648e-07 -8.84282e-07 0.0  -1.3265e-07 -1.10535e-06 0.0  -1.32651e-07 -1.32642e-06 0.0  -1.32653e-07 -1.54749e-06 0.0  -1.32654e-07 -1.76856e-06 0.0  -1.32656e-07 -1.98964e-06 0.0  -1.32657e-07 -2.21071e-06 0.0  -1.32659e-07 -2.43178e-06 0.0  1.32641e-07 -2.21072e-07 0.0  1.32639e-07 -4.42142e-07 0.0  1.32638e-07 -6.63213e-07 0.0  1.32637e-07 -8.84284e-07 0.0  1.32635e-07 -1.10535e-06 0.0  1.32634e-07 -1.32642e-06 0.0  1.32632e-07 -1.5475e-06 0.0  1.32631e-07 -1.76857e-06 0.0  1.32629e-07 -1.98964e-06 0.0  1.32628e-07 -2.21071e-06 0.0  1.32626e-07 -2.43178e-06 0.0
            </DataArray>
            <DataArray type="Float64" Name="Force" NumberOfComponents="3" format="ascii">
               -0.00122525 0.201593 0.0  1.30715 0.0240705 0.0  1.31889 0.0315638 0.0  -0.374422 0.000550151 0.0  1.31964 -0.0369031 0.0  1.31006 -0.0357321 0.0  0.00550594 -0.238004 0.0  0.0749019 0.0154164 0.0  0.189578 -0.0135426 0.0  0.177999 -0.010635 0.0  -0.0468549 1.90785e-05 0.0  0.17812 0.0102184 0.0  0.189326 0.0124005 0.0  0.0747206 -0.0139519 0.0  0.485679 0.378772 0.0  0.26358 0.417821 0.0  0.239946 0.55177 0.0  0.230639 0.573495 0.0  0.239808 0.58193 0.0  0.25123 0.57189 0.0  0.263253 0.53175 0.0  0.273761 0.46798 0.0  0.291545 0.384561 0.0  0.295801 0.257921 0.0  0.364448 0.113374 0.0  0.495098 -0.5055 0.0  0.272997 -0.487958 0.0  0.24445 -0.587174 0.0  0.235807 -0.606021 0.0  0.243964 -0.612041 0.0  0.254993 -0.595429 0.0  0.266588 -0.549362 0.0  0.276603 -0.480342 0.0  0.293952 -0.392532 0.0  0.297609 -0.262143 0.0  0.365681 -0.114997 0.0
            </DataArray>
         </PointData>
      </Piece>
   </UnstructuredGrid>
</VTKFile>
