<?xml version="1.0"?>
<VTKFile type="UnstructuredGrid" version="0.1" byte_order="LittleEndian">
   <UnstructuredGrid>
      <Piece NumberOfPoints="36" NumberOfCells="0" >
         <Points>
            <DataArray type="Float64" Name="Position" NumberOfComponents="3" format="ascii">
               0  -0.01  0
               0  -0.00666667  0
               0  -0.00333333  0
               0  0  0
               0  0.00333333  0
               0  0.00666667  0
               0  0.01  0
               0.2  -0.01  0
               0.2  -0.00666667  0
               0.2  -0.00333333  0
               0.2  0  0
               0.2  0.00333333  0
               0.2  0.00666667  0
               0.2  0.01  0
               0.0166667  -0.01  0
               0.0333333  -0.01  0
               0.05  -0.01  0
               0.0666667  -0.01  0
               0.0833333  -0.01  0
               0.1  -0.01  0
               0.116667  -0.01  0
               0.133333  -0.01  0
               0.15  -0.01  0
               0.166667  -0.01  0
               0.183333  -0.01  0
               0.0166667  0.01  0
               0.0333333  0.01  0
               0.05  0.01  0
               0.0666667  0.01  0
               0.0833333  0.01  0
               0.1  0.01  0
               0.116667  0.01  0
               0.133333  0.01  0
               0.15  0.01  0
               0.166667  0.01  0
               0.183333  0.01  0
            </DataArray>
         </Points>

         <Cells>
            <DataArray type="Int32" Name="connectivity" NumberOfComponents="1" format="ascii">

            </DataArray>
            <DataArray type="Int32" Name="offsets" NumberOfComponents="1" format="ascii">

            </DataArray>
            <DataArray type="UInt8"  Name="types" NumberOfComponents="1" format="ascii">

            </DataArray>
         </Cells>
         <PointData Scalars="Rank " Vectors="Displacement Force ">
            <DataArray type="UInt32" Name="Rank" NumberOfComponents="1" format="ascii">
               0 0 0 0 0 0 0 0 0 0 0 0 0 0 0 0 0 0 0 0 0 0 0 0 0 0 0 0 0 0 0 0 0 0 0 0
            </DataArray>
            <DataArray type="Float64" Name="Displacement" NumberOfComponents="3" format="ascii">
               5.84756e-05 1.70971e-07 0.0  3.89837e-05 1.13981e-07 0.0  1.94919e-05 5.69904e-08 0.0  0 0 0.0  -1.94919e-05 -5.69904e-08 0.0  -3.89837e-05 -1.13981e-07 0.0  -5.84756e-05 -1.70971e-07 0.0  5.50562e-05 0.00116968 0.0  3.55643e-05 0.00116963 0.0  1.60724e-05 0.00116957 0.0  -3.41943e-06 0.00116951 0.0  -2.29113e-05 0.00116946 0.0  -4.24032e-05 0.0011694 0.0  -6.1895e-05 0.00116934 0.0  5.81907e-05 9.76303e-05 0.0  5.79057e-05 0.00019509 0.0  5.76208e-05 0.000292549 0.0  5.73358e-05 0.000390008 0.0  5.70509e-05 0.000487468 0.0  5.67659e-05 0.000584927 0.0  5.64809e-05 0.000682386 0.0  5.6196e-05 0.000779846 0.0  5.5911e-05 0.000877305 0.0  5.56261e-05 0.000974765 0.0  5.53411e-05 0.00107222 0.0  -5.87606e-05 9.72884e-05 0.0  -5.90455e-05 0.000194748 0.0  -5.93305e-05 0.000292207 0.0  -5.96154e-05 0.000389666 0.0  -5.99004e-05 0.000487126 0.0  -6.01853e-05 0.000584585 0.0  -6.04703e-05 0.000682045 0.0  -6.07552e-05 0.000779504 0.0  -6.10402e-05 0.000876963 0.0  -6.13251e-05 0.000974423 0.0  -6.16101e-05 0.00107188 0.0
            </DataArray>
            <DataArray type="Float64" Name="Force" NumberOfComponents="3" format="ascii">
               0.00969587 -0.006206 0.0  1.18913 -0.000128532 0.0  1.20036 0.0137206 0.0  -0.34572 -0.00158358 0.0  1.22912 -0.025211 0.0  1.21833 -0.0431631 0.0  0.0175187 -0.171799 0.0  0.0418573 -0.10102 0.0  0.200341 -0.022502 0.0  0.192418 -0.0164757 0.0  -0.054488 -0.000616086 0.0  0.204827 0.0212136 0.0  0.21242 0.0231081 0.0  0.0526827 0.0969945 0.0  0.462489 -0.19508 0.0  0.237818 -0.0415897 0.0  0.216392 0.0994876 0.0  0.198023 0.11861 0.0  0.196092 0.119797 0.0  0.19817 0.108683 0.0  0.202417 0.0758643 0.0  0.207345 0.0261693 0.0  0.218045 -0.0412068 0.0  0.219013 -0.118723 0.0  0.265012 -0.226012 0.0  0.498794 -0.439294 0.0  0.280902 -0.399197 0.0  0.253055 -0.453316 0.0  0.227561 -0.411809 0.0  0.22029 -0.374583 0.0  0.219974 -0.327537 0.0  0.223065 -0.265905 0.0  0.227518 -0.18953 0.0  0.239264 -0.09575 0.0  0.241235 0.016062 0.0  0.292653 0.158969 0.0
            </DataArray>
         </PointData>
      </Piece>
   </UnstructuredGrid>
</VTKFile>
