<?xml version="1.0"?>
<VTKFile type="UnstructuredGrid" version="0.1" byte_order="LittleEndian">
   <UnstructuredGrid>
      <Piece NumberOfPoints="36" NumberOfCells="0" >
         <Points>
            <DataArray type="Float64" Name="Position" NumberOfComponents="3" format="ascii">
               0  -0.01  0
               0  -0.00666667  0
               0  -0.00333333  0
               0  0  0
               0  0.00333333  0
               0  0.00666667  0
               0  0.01  0
               0.2  -0.01  0
               0.2  -0.00666667  0
               0.2  -0.00333333  0
               0.2  0  0
               0.2  0.00333333  0
               0.2  0.00666667  0
               0.2  0.01  0
               0.0166667  -0.01  0
               0.0333333  -0.01  0
               0.05  -0.01  0
               0.0666667  -0.01  0
               0.0833333  -0.01  0
               0.1  -0.01  0
               0.116667  -0.01  0
               0.133333  -0.01  0
               0.15  -0.01  0
               0.166667  -0.01  0
               0.183333  -0.01  0
               0.0166667  0.01  0
               0.0333333  0.01  0
               0.05  0.01  0
               0.0666667  0.01  0
               0.0833333  0.01  0
               0.1  0.01  0
               0.116667  0.01  0
               0.133333  0.01  0
               0.15  0.01  0
               0.166667  0.01  0
               0.183333  0.01  0
            </DataArray>
         </Points>

         <Cells>
            <DataArray type="Int32" Name="connectivity" NumberOfComponents="1" format="ascii">

            </DataArray>
            <DataArray type="Int32" Name="offsets" NumberOfComponents="1" format="ascii">

            </DataArray>
            <DataArray type="UInt8"  Name="types" NumberOfComponents="1" format="ascii">

            </DataArray>
         </Cells>
         <PointData Scalars="Rank " Vectors="Displacement Force ">
            <DataArray type="UInt32" Name="Rank" NumberOfComponents="1" format="ascii">
               0 0 0 0 0 0 0 0 0 0 0 0 0 0 0 0 0 0 0 0 0 0 0 0 0 0 0 0 0 0 0 0 0 0 0 0
            </DataArray>
            <DataArray type="Float64" Name="Displacement" NumberOfComponents="3" format="ascii">
               -4.58234e-05 1.0499e-07 0.0  -3.0549e-05 6.99932e-08 0.0  -1.52745e-05 3.49966e-08 0.0  0 0 0.0  1.52745e-05 -3.49966e-08 0.0  3.0549e-05 -6.99932e-08 0.0  4.58234e-05 -1.0499e-07 0.0  -4.79232e-05 -0.000916364 0.0  -3.26487e-05 -0.000916399 0.0  -1.73743e-05 -0.000916434 0.0  -2.0998e-06 -0.000916469 0.0  1.31747e-05 -0.000916503 0.0  2.84492e-05 -0.000916538 0.0  4.37236e-05 -0.000916573 0.0  -4.59984e-05 -7.62674e-05 0.0  -4.61734e-05 -0.00015264 0.0  -4.63484e-05 -0.000229012 0.0  -4.65234e-05 -0.000305385 0.0  -4.66983e-05 -0.000381757 0.0  -4.68733e-05 -0.000458129 0.0  -4.70483e-05 -0.000534502 0.0  -4.72233e-05 -0.000610874 0.0  -4.73983e-05 -0.000687246 0.0  -4.75733e-05 -0.000763619 0.0  -4.77482e-05 -0.000839991 0.0  4.56484e-05 -7.64774e-05 0.0  4.54735e-05 -0.00015285 0.0  4.52985e-05 -0.000229222 0.0  4.51235e-05 -0.000305594 0.0  4.49485e-05 -0.000381967 0.0  4.47735e-05 -0.000458339 0.0  4.45985e-05 -0.000534712 0.0  4.44236e-05 -0.000611084 0.0  4.42486e-05 -0.000687456 0.0  4.40736e-05 -0.000763829 0.0  4.38986e-05 -0.000840201 0.0
            </DataArray>
            <DataArray type="Float64" Name="Force" NumberOfComponents="3" format="ascii">
               0.0101597 0.140412 0.0  1.23251 0.0248318 0.0  1.23782 0.0216615 0.0  -0.349226 0.0021064 0.0  1.23231 -0.0271173 0.0  1.2245 -0.0235206 0.0  0.0132682 -0.0904254 0.0  0.0526111 -0.0705874 0.0  0.19539 -0.0177766 0.0  0.186714 -0.018326 0.0  -0.0500664 0.000184288 0.0  0.183585 0.0184682 0.0  0.192501 0.0218273 0.0  0.046041 0.0866706 0.0  0.476448 0.292591 0.0  0.254225 0.309706 0.0  0.226193 0.400071 0.0  0.204923 0.39842 0.0  0.2013 0.386322 0.0  0.204199 0.358279 0.0  0.209848 0.309398 0.0  0.215698 0.241383 0.0  0.229067 0.155251 0.0  0.233007 0.0457119 0.0  0.286378 -0.0919445 0.0  0.493476 -0.0980537 0.0  0.270913 -0.127207 0.0  0.236918 -0.203492 0.0  0.216814 -0.213987 0.0  0.214134 -0.207777 0.0  0.214039 -0.179558 0.0  0.216787 -0.135312 0.0  0.220057 -0.0779295 0.0  0.229951 -0.00514321 0.0  0.228909 0.078894 0.0  0.273803 0.187753 0.0
            </DataArray>
         </PointData>
      </Piece>
   </UnstructuredGrid>
</VTKFile>
