<?xml version="1.0"?>
<VTKFile type="UnstructuredGrid" version="0.1" byte_order="LittleEndian">
   <UnstructuredGrid>
      <Piece NumberOfPoints="36" NumberOfCells="0" >
         <Points>
            <DataArray type="Float64" Name="Position" NumberOfComponents="3" format="ascii">
               0  -0.01  0
               0  -0.00666667  0
               0  -0.00333333  0
               0  0  0
               0  0.00333333  0
               0  0.00666667  0
               0  0.01  0
               0.2  -0.01  0
               0.2  -0.00666667  0
               0.2  -0.00333333  0
               0.2  0  0
               0.2  0.00333333  0
               0.2  0.00666667  0
               0.2  0.01  0
               0.0166667  -0.01  0
               0.0333333  -0.01  0
               0.05  -0.01  0
               0.0666667  -0.01  0
               0.0833333  -0.01  0
               0.1  -0.01  0
               0.116667  -0.01  0
               0.133333  -0.01  0
               0.15  -0.01  0
               0.166667  -0.01  0
               0.183333  -0.01  0
               0.0166667  0.01  0
               0.0333333  0.01  0
               0.05  0.01  0
               0.0666667  0.01  0
               0.0833333  0.01  0
               0.1  0.01  0
               0.116667  0.01  0
               0.133333  0.01  0
               0.15  0.01  0
               0.166667  0.01  0
               0.183333  0.01  0
            </DataArray>
         </Points>

         <Cells>
            <DataArray type="Int32" Name="connectivity" NumberOfComponents="1" format="ascii">

            </DataArray>
            <DataArray type="Int32" Name="offsets" NumberOfComponents="1" format="ascii">

            </DataArray>
            <DataArray type="UInt8"  Name="types" NumberOfComponents="1" format="ascii">

            </DataArray>
         </Cells>
         <PointData Scalars="Rank " Vectors="Displacement Force ">
            <DataArray type="UInt32" Name="Rank" NumberOfComponents="1" format="ascii">
               0 0 0 0 0 0 0 0 0 0 0 0 0 0 0 0 0 0 0 0 0 0 0 0 0 0 0 0 0 0 0 0 0 0 0 0
            </DataArray>
            <DataArray type="Float64" Name="Displacement" NumberOfComponents="3" format="ascii">
               9.57796e-05 4.58697e-07 0.0  6.38531e-05 3.05798e-07 0.0  3.19265e-05 1.52899e-07 0.0  0 0 0.0  -3.19265e-05 -1.52899e-07 0.0  -6.38531e-05 -3.05798e-07 0.0  -9.57796e-05 -4.58697e-07 0.0  8.66057e-05 0.00191605 0.0  5.46791e-05 0.0019159 0.0  2.27526e-05 0.00191575 0.0  -9.17394e-06 0.00191559 0.0  -4.11005e-05 0.00191544 0.0  -7.3027e-05 0.00191529 0.0  -0.000104954 0.00191513 0.0  9.50151e-05 0.000160091 0.0  9.42506e-05 0.000319724 0.0  9.34861e-05 0.000479357 0.0  9.27216e-05 0.000638989 0.0  9.19571e-05 0.000798622 0.0  9.11926e-05 0.000958255 0.0  9.04281e-05 0.00111789 0.0  8.96636e-05 0.00127752 0.0  8.88992e-05 0.00143715 0.0  8.81347e-05 0.00159679 0.0  8.73702e-05 0.00175642 0.0  -9.65441e-05 0.000159174 0.0  -9.73086e-05 0.000318807 0.0  -9.80731e-05 0.000478439 0.0  -9.88376e-05 0.000638072 0.0  -9.96021e-05 0.000797705 0.0  -0.000100367 0.000957337 0.0  -0.000101131 0.00111697 0.0  -0.000101896 0.0012766 0.0  -0.00010266 0.00143624 0.0  -0.000103425 0.00159587 0.0  -0.000104189 0.0017555 0.0
            </DataArray>
            <DataArray type="Float64" Name="Force" NumberOfComponents="3" format="ascii">
               0.00417291 0.0185114 0.0  1.20733 0.00221386 0.0  1.21878 0.0183804 0.0  -0.351138 0.000302348 0.0  1.24947 -0.0274685 0.0  1.23807 -0.0407206 0.0  0.018038 -0.191701 0.0  0.0460482 -0.0717107 0.0  0.188871 -0.0166469 0.0  0.180442 -0.0152338 0.0  -0.0499517 -0.000983635 0.0  0.185391 0.0223638 0.0  0.19347 0.0220677 0.0  0.0525194 0.0855673 0.0  0.449818 -0.122025 0.0  0.221851 0.0445306 0.0  0.199698 0.201348 0.0  0.183876 0.229524 0.0  0.183553 0.239019 0.0  0.187702 0.231631 0.0  0.194067 0.200668 0.0  0.201057 0.150137 0.0  0.214328 0.0806992 0.0  0.218788 -0.00924234 0.0  0.269576 -0.126319 0.0  0.511459 -0.476382 0.0  0.297747 -0.420277 0.0  0.269104 -0.461244 0.0  0.242352 -0.40668 0.0  0.23347 -0.359005 0.0  0.230326 -0.304963 0.0  0.230778 -0.240439 0.0  0.233138 -0.165253 0.0  0.242474 -0.0769627 0.0  0.241285 0.0253182 0.0  0.289034 0.152705 0.0
            </DataArray>
         </PointData>
      </Piece>
   </UnstructuredGrid>
</VTKFile>
