<?xml version="1.0"?>
<VTKFile type="UnstructuredGrid" version="0.1" byte_order="LittleEndian">
   <UnstructuredGrid>
      <Piece NumberOfPoints="36" NumberOfCells="0" >
         <Points>
            <DataArray type="Float64" Name="Position" NumberOfComponents="3" format="ascii">
               0  -0.01  0
               0  -0.00666667  0
               0  -0.00333333  0
               0  0  0
               0  0.00333333  0
               0  0.00666667  0
               0  0.01  0
               0.2  -0.01  0
               0.2  -0.00666667  0
               0.2  -0.00333333  0
               0.2  0  0
               0.2  0.00333333  0
               0.2  0.00666667  0
               0.2  0.01  0
               0.0166667  -0.01  0
               0.0333333  -0.01  0
               0.05  -0.01  0
               0.0666667  -0.01  0
               0.0833333  -0.01  0
               0.1  -0.01  0
               0.116667  -0.01  0
               0.133333  -0.01  0
               0.15  -0.01  0
               0.166667  -0.01  0
               0.183333  -0.01  0
               0.0166667  0.01  0
               0.0333333  0.01  0
               0.05  0.01  0
               0.0666667  0.01  0
               0.0833333  0.01  0
               0.1  0.01  0
               0.116667  0.01  0
               0.133333  0.01  0
               0.15  0.01  0
               0.166667  0.01  0
               0.183333  0.01  0
            </DataArray>
         </Points>

         <Cells>
            <DataArray type="Int32" Name="connectivity" NumberOfComponents="1" format="ascii">

            </DataArray>
            <DataArray type="Int32" Name="offsets" NumberOfComponents="1" format="ascii">

            </DataArray>
            <DataArray type="UInt8"  Name="types" NumberOfComponents="1" format="ascii">

            </DataArray>
         </Cells>
         <PointData Scalars="Rank " Vectors="Displacement Force ">
            <DataArray type="UInt32" Name="Rank" NumberOfComponents="1" format="ascii">
               0 0 0 0 0 0 0 0 0 0 0 0 0 0 0 0 0 0 0 0 0 0 0 0 0 0 0 0 0 0 0 0 0 0 0 0
            </DataArray>
            <DataArray type="Float64" Name="Displacement" NumberOfComponents="3" format="ascii">
               -0.000199748 1.99517e-06 0.0  -0.000133166 1.33011e-06 0.0  -6.65828e-05 6.65057e-07 0.0  0 0 0.0  6.65828e-05 -6.65057e-07 0.0  0.000133166 -1.33011e-06 0.0  0.000199748 -1.99517e-06 0.0  -0.000239652 -0.00399297 0.0  -0.000173069 -0.00399364 0.0  -0.000106486 -0.0039943 0.0  -3.99034e-05 -0.00399497 0.0  2.66794e-05 -0.00399563 0.0  9.32622e-05 -0.0039963 0.0  0.000159845 -0.00399696 0.0  -0.000203074 -0.000330919 0.0  -0.000206399 -0.000663833 0.0  -0.000209724 -0.000996747 0.0  -0.00021305 -0.00132966 0.0  -0.000216375 -0.00166258 0.0  -0.0002197 -0.00199549 0.0  -0.000223025 -0.0023284 0.0  -0.000226351 -0.00266132 0.0  -0.000229676 -0.00299423 0.0  -0.000233001 -0.00332715 0.0  -0.000236327 -0.00366006 0.0  0.000196423 -0.000334909 0.0  0.000193098 -0.000667823 0.0  0.000189773 -0.00100074 0.0  0.000186447 -0.00133365 0.0  0.000183122 -0.00166657 0.0  0.000179797 -0.00199948 0.0  0.000176471 -0.00233239 0.0  0.000173146 -0.00266531 0.0  0.000169821 -0.00299822 0.0  0.000166496 -0.00333114 0.0  0.00016317 -0.00366405 0.0
            </DataArray>
            <DataArray type="Float64" Name="Force" NumberOfComponents="3" format="ascii">
               0.0135061 0.226262 0.0  1.25053 0.0439826 0.0  1.25352 0.0151512 0.0  -0.346503 0.00379404 0.0  1.20686 -0.0213782 0.0  1.20218 -0.00380098 0.0  0.00833926 0.0266115 0.0  0.0572039 -0.0736905 0.0  0.19519 -0.0223082 0.0  0.185888 -0.0192182 0.0  -0.0498557 0.000502636 0.0  0.180664 0.0132563 0.0  0.190828 0.022139 0.0  0.0422718 0.0807494 0.0  0.505843 0.624837 0.0  0.2941 0.553158 0.0  0.265126 0.594495 0.0  0.23864 0.537183 0.0  0.229509 0.488889 0.0  0.228 0.432683 0.0  0.230315 0.363625 0.0  0.233696 0.281361 0.0  0.2452 0.183451 0.0  0.24658 0.062572 0.0  0.29992 -0.0860755 0.0  0.466274 0.28512 0.0  0.236133 0.0929172 0.0  0.211653 -0.0704265 0.0  0.19519 -0.104401 0.0  0.193844 -0.117082 0.0  0.196512 -0.11332 0.0  0.201005 -0.0873153 0.0  0.206161 -0.0443488 0.0  0.21766 0.0163836 0.0  0.218554 0.0897709 0.0  0.264063 0.188973 0.0
            </DataArray>
         </PointData>
      </Piece>
   </UnstructuredGrid>
</VTKFile>
