<?xml version="1.0"?>
<VTKFile type="UnstructuredGrid" version="0.1" byte_order="LittleEndian">
   <UnstructuredGrid>
      <Piece NumberOfPoints="36" NumberOfCells="0" >
         <Points>
            <DataArray type="Float64" Name="Position" NumberOfComponents="3" format="ascii">
               0  -0.01  0
               0  -0.00666667  0
               0  -0.00333333  0
               0  0  0
               0  0.00333333  0
               0  0.00666667  0
               0  0.01  0
               0.2  -0.01  0
               0.2  -0.00666667  0
               0.2  -0.00333333  0
               0.2  0  0
               0.2  0.00333333  0
               0.2  0.00666667  0
               0.2  0.01  0
               0.0166667  -0.01  0
               0.0333333  -0.01  0
               0.05  -0.01  0
               0.0666667  -0.01  0
               0.0833333  -0.01  0
               0.1  -0.01  0
               0.116667  -0.01  0
               0.133333  -0.01  0
               0.15  -0.01  0
               0.166667  -0.01  0
               0.183333  -0.01  0
               0.0166667  0.01  0
               0.0333333  0.01  0
               0.05  0.01  0
               0.0666667  0.01  0
               0.0833333  0.01  0
               0.1  0.01  0
               0.116667  0.01  0
               0.133333  0.01  0
               0.15  0.01  0
               0.166667  0.01  0
               0.183333  0.01  0
            </DataArray>
         </Points>

         <Cells>
            <DataArray type="Int32" Name="connectivity" NumberOfComponents="1" format="ascii">

            </DataArray>
            <DataArray type="Int32" Name="offsets" NumberOfComponents="1" format="ascii">

            </DataArray>
            <DataArray type="UInt8"  Name="types" NumberOfComponents="1" format="ascii">

            </DataArray>
         </Cells>
         <PointData Scalars="Rank " Vectors="Displacement Force ">
            <DataArray type="UInt32" Name="Rank" NumberOfComponents="1" format="ascii">
               0 0 0 0 0 0 0 0 0 0 0 0 0 0 0 0 0 0 0 0 0 0 0 0 0 0 0 0 0 0 0 0 0 0 0 0
            </DataArray>
            <DataArray type="Float64" Name="Displacement" NumberOfComponents="3" format="ascii">
               0.000133202 8.87183e-07 0.0  8.88016e-05 5.91455e-07 0.0  4.44008e-05 2.95728e-07 0.0  0 0 0.0  -4.44008e-05 -2.95728e-07 0.0  -8.88016e-05 -5.91455e-07 0.0  -0.000133202 -8.87183e-07 0.0  0.000115459 0.00266493 0.0  7.10579e-05 0.00266464 0.0  2.66571e-05 0.00266434 0.0  -1.77437e-05 0.00266405 0.0  -6.21445e-05 0.00266375 0.0  -0.000106545 0.00266346 0.0  -0.000150946 0.00266316 0.0  0.000131724 0.000222891 0.0  0.000130245 0.000444895 0.0  0.000128766 0.000666899 0.0  0.000127288 0.000888903 0.0  0.000125809 0.00111091 0.0  0.000124331 0.00133291 0.0  0.000122852 0.00155491 0.0  0.000121373 0.00177692 0.0  0.000119895 0.00199892 0.0  0.000118416 0.00222093 0.0  0.000116937 0.00244293 0.0  -0.000134681 0.000221117 0.0  -0.00013616 0.000443121 0.0  -0.000137638 0.000665125 0.0  -0.000139117 0.000887129 0.0  -0.000140596 0.00110913 0.0  -0.000142074 0.00133114 0.0  -0.000143553 0.00155314 0.0  -0.000145031 0.00177514 0.0  -0.00014651 0.00199715 0.0  -0.000147989 0.00221915 0.0  -0.000149467 0.00244116 0.0
            </DataArray>
            <DataArray type="Float64" Name="Force" NumberOfComponents="3" format="ascii">
               0.00522772 -0.0512691 0.0  1.19234 -0.0108905 0.0  1.2025 0.0118048 0.0  -0.348393 -0.00256189 0.0  1.25133 -0.0225359 0.0  1.24198 -0.0551303 0.0  0.0174058 -0.235671 0.0  0.0411683 -0.0824513 0.0  0.183856 -0.0214501 0.0  0.174947 -0.012725 0.0  -0.0499825 -0.000667175 0.0  0.191264 0.0203693 0.0  0.199536 0.0236258 0.0  0.0580494 0.0796095 0.0  0.450754 -0.359158 0.0  0.223522 -0.137308 0.0  0.201717 0.0378532 0.0  0.186966 0.0809962 0.0  0.186889 0.0980775 0.0  0.1902 0.0982948 0.0  0.195225 0.0756255 0.0  0.200914 0.035131 0.0  0.212108 -0.0235668 0.0  0.213482 -0.0946718 0.0  0.259016 -0.192509 0.0  0.513195 -0.664167 0.0  0.300993 -0.571305 0.0  0.27074 -0.603734 0.0  0.242657 -0.538115 0.0  0.233241 -0.485011 0.0  0.231158 -0.425808 0.0  0.233268 -0.354746 0.0  0.236986 -0.2703 0.0  0.248543 -0.170121 0.0  0.250014 -0.0477328 0.0  0.302508 0.102679 0.0
            </DataArray>
         </PointData>
      </Piece>
   </UnstructuredGrid>
</VTKFile>
