<?xml version="1.0"?>
<VTKFile type="UnstructuredGrid" version="0.1" byte_order="LittleEndian">
   <UnstructuredGrid>
      <Piece NumberOfPoints="36" NumberOfCells="0" >
         <Points>
            <DataArray type="Float64" Name="Position" NumberOfComponents="3" format="ascii">
               0  -0.01  0
               0  -0.00666667  0
               0  -0.00333333  0
               0  0  0
               0  0.00333333  0
               0  0.00666667  0
               0  0.01  0
               0.2  -0.01  0
               0.2  -0.00666667  0
               0.2  -0.00333333  0
               0.2  0  0
               0.2  0.00333333  0
               0.2  0.00666667  0
               0.2  0.01  0
               0.0166667  -0.01  0
               0.0333333  -0.01  0
               0.05  -0.01  0
               0.0666667  -0.01  0
               0.0833333  -0.01  0
               0.1  -0.01  0
               0.116667  -0.01  0
               0.133333  -0.01  0
               0.15  -0.01  0
               0.166667  -0.01  0
               0.183333  -0.01  0
               0.0166667  0.01  0
               0.0333333  0.01  0
               0.05  0.01  0
               0.0666667  0.01  0
               0.0833333  0.01  0
               0.1  0.01  0
               0.116667  0.01  0
               0.133333  0.01  0
               0.15  0.01  0
               0.166667  0.01  0
               0.183333  0.01  0
            </DataArray>
         </Points>

         <Cells>
            <DataArray type="Int32" Name="connectivity" NumberOfComponents="1" format="ascii">

            </DataArray>
            <DataArray type="Int32" Name="offsets" NumberOfComponents="1" format="ascii">

            </DataArray>
            <DataArray type="UInt8"  Name="types" NumberOfComponents="1" format="ascii">

            </DataArray>
         </Cells>
         <PointData Scalars="Rank " Vectors="Displacement Force ">
            <DataArray type="UInt32" Name="Rank" NumberOfComponents="1" format="ascii">
               0 0 0 0 0 0 0 0 0 0 0 0 0 0 0 0 0 0 0 0 0 0 0 0 0 0 0 0 0 0 0 0 0 0 0 0
            </DataArray>
            <DataArray type="Float64" Name="Displacement" NumberOfComponents="3" format="ascii">
               0.000105323 5.54666e-07 0.0  7.02156e-05 3.69777e-07 0.0  3.51078e-05 1.84889e-07 0.0  0 0 0.0  -3.51078e-05 -1.84889e-07 0.0  -7.02156e-05 -3.69777e-07 0.0  -0.000105323 -5.54666e-07 0.0  9.423e-05 0.00210702 0.0  5.91222e-05 0.00210684 0.0  2.40145e-05 0.00210665 0.0  -1.10933e-05 0.00210647 0.0  -4.62011e-05 0.00210628 0.0  -8.13089e-05 0.0021061 0.0  -0.000116417 0.00210591 0.0  0.000104399 0.000176094 0.0  0.000103474 0.000351632 0.0  0.00010255 0.000527171 0.0  0.000101626 0.00070271 0.0  0.000100701 0.000878249 0.0  9.97767e-05 0.00105379 0.0  9.88522e-05 0.00122933 0.0  9.79278e-05 0.00140487 0.0  9.70033e-05 0.0015804 0.0  9.60789e-05 0.00175594 0.0  9.51545e-05 0.00193148 0.0  -0.000106248 0.000174984 0.0  -0.000107172 0.000350523 0.0  -0.000108097 0.000526062 0.0  -0.000109021 0.000701601 0.0  -0.000109946 0.00087714 0.0  -0.00011087 0.00105268 0.0  -0.000111794 0.00122822 0.0  -0.000112719 0.00140376 0.0  -0.000113643 0.0015793 0.0  -0.000114568 0.00175483 0.0  -0.000115492 0.00193037 0.0
            </DataArray>
            <DataArray type="Float64" Name="Force" NumberOfComponents="3" format="ascii">
               0.00673719 -0.0345368 0.0  1.19216 -0.0068018 0.0  1.20267 0.0124816 0.0  -0.347658 -0.00223264 0.0  1.24429 -0.0235374 0.0  1.23448 -0.0516152 0.0  0.0171281 -0.213912 0.0  0.0414269 -0.0884335 0.0  0.188824 -0.022135 0.0  0.180228 -0.0137371 0.0  -0.0513652 -0.000621856 0.0  0.195537 0.0203107 0.0  0.203612 0.0236176 0.0  0.0563598 0.0845172 0.0  0.455073 -0.299622 0.0  0.228857 -0.102528 0.0  0.207245 0.0604375 0.0  0.191153 0.094755 0.0  0.190523 0.106637 0.0  0.193516 0.102235 0.0  0.198234 0.0756507 0.0  0.203548 0.0318016 0.0  0.214473 -0.029974 0.0  0.215541 -0.10319 0.0  0.261024 -0.203962 0.0  0.507286 -0.58783 0.0  0.293075 -0.514109 0.0  0.263801 -0.554794 0.0  0.236721 -0.498155 0.0  0.228177 -0.450944 0.0  0.226879 -0.396206 0.0  0.229564 -0.328688 0.0  0.233576 -0.246861 0.0  0.24531 -0.148718 0.0  0.247026 -0.0293851 0.0  0.299236 0.118874 0.0
            </DataArray>
         </PointData>
      </Piece>
   </UnstructuredGrid>
</VTKFile>
