<?xml version="1.0"?>
<VTKFile type="UnstructuredGrid" version="0.1" byte_order="LittleEndian">
   <UnstructuredGrid>
      <Piece NumberOfPoints="36" NumberOfCells="0" >
         <Points>
            <DataArray type="Float64" Name="Position" NumberOfComponents="3" format="ascii">
               0  -0.01  0
               0  -0.00666667  0
               0  -0.00333333  0
               0  0  0
               0  0.00333333  0
               0  0.00666667  0
               0  0.01  0
               0.2  -0.01  0
               0.2  -0.00666667  0
               0.2  -0.00333333  0
               0.2  0  0
               0.2  0.00333333  0
               0.2  0.00666667  0
               0.2  0.01  0
               0.0166667  -0.01  0
               0.0333333  -0.01  0
               0.05  -0.01  0
               0.0666667  -0.01  0
               0.0833333  -0.01  0
               0.1  -0.01  0
               0.116667  -0.01  0
               0.133333  -0.01  0
               0.15  -0.01  0
               0.166667  -0.01  0
               0.183333  -0.01  0
               0.0166667  0.01  0
               0.0333333  0.01  0
               0.05  0.01  0
               0.0666667  0.01  0
               0.0833333  0.01  0
               0.1  0.01  0
               0.116667  0.01  0
               0.133333  0.01  0
               0.15  0.01  0
               0.166667  0.01  0
               0.183333  0.01  0
            </DataArray>
         </Points>

         <Cells>
            <DataArray type="Int32" Name="connectivity" NumberOfComponents="1" format="ascii">

            </DataArray>
            <DataArray type="Int32" Name="offsets" NumberOfComponents="1" format="ascii">

            </DataArray>
            <DataArray type="UInt8"  Name="types" NumberOfComponents="1" format="ascii">

            </DataArray>
         </Cells>
         <PointData Scalars="Rank " Vectors="Displacement Force ">
            <DataArray type="UInt32" Name="Rank" NumberOfComponents="1" format="ascii">
               0 0 0 0 0 0 0 0 0 0 0 0 0 0 0 0 0 0 0 0 0 0 0 0 0 0 0 0 0 0 0 0 0 0 0 0
            </DataArray>
            <DataArray type="Float64" Name="Displacement" NumberOfComponents="3" format="ascii">
               -0.000187525 1.75844e-06 0.0  -0.000125017 1.17229e-06 0.0  -6.25084e-05 5.86146e-07 0.0  0 0 0.0  6.25084e-05 -5.86146e-07 0.0  0.000125017 -1.17229e-06 0.0  0.000187525 -1.75844e-06 0.0  -0.000222694 -0.00374874 0.0  -0.000160186 -0.00374933 0.0  -9.76772e-05 -0.00374992 0.0  -3.51688e-05 -0.0037505 0.0  2.73396e-05 -0.00375109 0.0  8.9848e-05 -0.00375168 0.0  0.000152356 -0.00375226 0.0  -0.000190456 -0.000310784 0.0  -0.000193387 -0.000623325 0.0  -0.000196317 -0.000935867 0.0  -0.000199248 -0.00124841 0.0  -0.000202179 -0.00156095 0.0  -0.00020511 -0.00187349 0.0  -0.00020804 -0.00218604 0.0  -0.000210971 -0.00249858 0.0  -0.000213902 -0.00281112 0.0  -0.000216832 -0.00312366 0.0  -0.000219763 -0.0034362 0.0  0.000184594 -0.0003143 0.0  0.000181664 -0.000626842 0.0  0.000178733 -0.000939384 0.0  0.000175802 -0.00125193 0.0  0.000172872 -0.00156447 0.0  0.000169941 -0.00187701 0.0  0.00016701 -0.00218955 0.0  0.000164079 -0.00250209 0.0  0.000161149 -0.00281464 0.0  0.000158218 -0.00312718 0.0  0.000155287 -0.00343972 0.0
            </DataArray>
            <DataArray type="Float64" Name="Force" NumberOfComponents="3" format="ascii">
               0.0188707 0.0847211 0.0  1.22224 0.0120372 0.0  1.22893 0.00311317 0.0  -0.346458 -5.67211e-05 0.0  1.22362 -0.0258832 0.0  1.21825 -0.0496626 0.0  0.000565469 -0.116219 0.0  0.0398923 -0.172777 0.0  0.189383 -0.0630916 0.0  0.18189 -0.0211305 0.0  -0.050654 0.00263917 0.0  0.1938 0.00352634 0.0  0.203368 -0.00987717 0.0  0.0568387 -0.017389 0.0  0.512338 0.047152 0.0  0.2996 -0.0101465 0.0  0.26646 -0.0564361 0.0  0.237149 -0.169797 0.0  0.224814 -0.270564 0.0  0.21856 -0.359806 0.0  0.216331 -0.440109 0.0  0.215578 -0.50716 0.0  0.221586 -0.571392 0.0  0.215733 -0.595318 0.0  0.260407 -0.631588 0.0  0.444409 -0.306498 0.0  0.212347 -0.484759 0.0  0.184747 -0.730677 0.0  0.169688 -0.813955 0.0  0.169878 -0.875841 0.0  0.174786 -0.910109 0.0  0.184052 -0.899151 0.0  0.194879 -0.839454 0.0  0.213115 -0.744933 0.0  0.223995 -0.56598 0.0  0.286918 -0.347776 0.0
            </DataArray>
         </PointData>
      </Piece>
   </UnstructuredGrid>
</VTKFile>
