<?xml version="1.0"?>
<VTKFile type="UnstructuredGrid" version="0.1" byte_order="LittleEndian">
   <UnstructuredGrid>
      <Piece NumberOfPoints="36" NumberOfCells="0" >
         <Points>
            <DataArray type="Float64" Name="Position" NumberOfComponents="3" format="ascii">
               0  -0.01  0
               0  -0.00666667  0
               0  -0.00333333  0
               0  0  0
               0  0.00333333  0
               0  0.00666667  0
               0  0.01  0
               0.2  -0.01  0
               0.2  -0.00666667  0
               0.2  -0.00333333  0
               0.2  0  0
               0.2  0.00333333  0
               0.2  0.00666667  0
               0.2  0.01  0
               0.0166667  -0.01  0
               0.0333333  -0.01  0
               0.05  -0.01  0
               0.0666667  -0.01  0
               0.0833333  -0.01  0
               0.1  -0.01  0
               0.116667  -0.01  0
               0.133333  -0.01  0
               0.15  -0.01  0
               0.166667  -0.01  0
               0.183333  -0.01  0
               0.0166667  0.01  0
               0.0333333  0.01  0
               0.05  0.01  0
               0.0666667  0.01  0
               0.0833333  0.01  0
               0.1  0.01  0
               0.116667  0.01  0
               0.133333  0.01  0
               0.15  0.01  0
               0.166667  0.01  0
               0.183333  0.01  0
            </DataArray>
         </Points>

         <Cells>
            <DataArray type="Int32" Name="connectivity" NumberOfComponents="1" format="ascii">

            </DataArray>
            <DataArray type="Int32" Name="offsets" NumberOfComponents="1" format="ascii">

            </DataArray>
            <DataArray type="UInt8"  Name="types" NumberOfComponents="1" format="ascii">

            </DataArray>
         </Cells>
         <PointData Scalars="Rank " Vectors="Displacement Force ">
            <DataArray type="UInt32" Name="Rank" NumberOfComponents="1" format="ascii">
               0 0 0 0 0 0 0 0 0 0 0 0 0 0 0 0 0 0 0 0 0 0 0 0 0 0 0 0 0 0 0 0 0 0 0 0
            </DataArray>
            <DataArray type="Float64" Name="Displacement" NumberOfComponents="3" format="ascii">
               3.64294e-05 6.63554e-08 0.0  2.42863e-05 4.42369e-08 0.0  1.21431e-05 2.21185e-08 0.0  0 0 0.0  -1.21431e-05 -2.21185e-08 0.0  -2.42863e-05 -4.42369e-08 0.0  -3.64294e-05 -6.63554e-08 0.0  3.51023e-05 0.000728655 0.0  2.29592e-05 0.000728633 0.0  1.0816e-05 0.000728611 0.0  -1.32711e-06 0.000728589 0.0  -1.34703e-05 0.000728567 0.0  -2.56134e-05 0.000728544 0.0  -3.77565e-05 0.000728522 0.0  3.63188e-05 6.07821e-05 0.0  3.62082e-05 0.000121498 0.0  3.60977e-05 0.000182214 0.0  3.59871e-05 0.000242929 0.0  3.58765e-05 0.000303645 0.0  3.57659e-05 0.000364361 0.0  3.56553e-05 0.000425076 0.0  3.55447e-05 0.000485792 0.0  3.54341e-05 0.000546508 0.0  3.53235e-05 0.000607224 0.0  3.52129e-05 0.000667939 0.0  -3.654e-05 6.06494e-05 0.0  -3.66506e-05 0.000121365 0.0  -3.67612e-05 0.000182081 0.0  -3.68718e-05 0.000242797 0.0  -3.69824e-05 0.000303512 0.0  -3.7093e-05 0.000364228 0.0  -3.72036e-05 0.000424944 0.0  -3.73142e-05 0.000485659 0.0  -3.74248e-05 0.000546375 0.0  -3.75354e-05 0.000607091 0.0  -3.76459e-05 0.000667807 0.0
            </DataArray>
            <DataArray type="Float64" Name="Force" NumberOfComponents="3" format="ascii">
               0.00688038 0.0696869 0.0  1.21825 0.0112728 0.0  1.23049 0.0209516 0.0  -0.352688 0.000716168 0.0  1.24599 -0.0288426 0.0  1.23363 -0.0343727 0.0  0.016221 -0.158603 0.0  0.0496193 -0.073149 0.0  0.195429 -0.0196693 0.0  0.186617 -0.0186977 0.0  -0.0477825 -2.63434e-05 0.0  0.163913 0.0173161 0.0  0.171899 0.0168533 0.0  0.0513243 0.0773725 0.0  0.46387 0.0425456 0.0  0.23863 0.155458 0.0  0.21662 0.292527 0.0  0.19785 0.306268 0.0  0.196823 0.307799 0.0  0.2001 0.292667 0.0  0.205761 0.254232 0.0  0.212347 0.195813 0.0  0.225202 0.116676 0.0  0.228592 0.0139982 0.0  0.280053 -0.120667 0.0  0.499438 -0.345826 0.0  0.279683 -0.327777 0.0  0.252491 -0.384979 0.0  0.227301 -0.345185 0.0  0.219549 -0.306971 0.0  0.218008 -0.261703 0.0  0.219897 -0.205262 0.0  0.223141 -0.138333 0.0  0.233105 -0.0596319 0.0  0.233311 0.0310612 0.0  0.280692 0.140767 0.0
            </DataArray>
         </PointData>
      </Piece>
   </UnstructuredGrid>
</VTKFile>
