<?xml version="1.0"?>
<VTKFile type="UnstructuredGrid" version="0.1" byte_order="LittleEndian">
   <UnstructuredGrid>
      <Piece NumberOfPoints="36" NumberOfCells="0" >
         <Points>
            <DataArray type="Float64" Name="Position" NumberOfComponents="3" format="ascii">
               0  -0.01  0
               0  -0.00666667  0
               0  -0.00333333  0
               0  0  0
               0  0.00333333  0
               0  0.00666667  0
               0  0.01  0
               0.2  -0.01  0
               0.2  -0.00666667  0
               0.2  -0.00333333  0
               0.2  0  0
               0.2  0.00333333  0
               0.2  0.00666667  0
               0.2  0.01  0
               0.0166667  -0.01  0
               0.0333333  -0.01  0
               0.05  -0.01  0
               0.0666667  -0.01  0
               0.0833333  -0.01  0
               0.1  -0.01  0
               0.116667  -0.01  0
               0.133333  -0.01  0
               0.15  -0.01  0
               0.166667  -0.01  0
               0.183333  -0.01  0
               0.0166667  0.01  0
               0.0333333  0.01  0
               0.05  0.01  0
               0.0666667  0.01  0
               0.0833333  0.01  0
               0.1  0.01  0
               0.116667  0.01  0
               0.133333  0.01  0
               0.15  0.01  0
               0.166667  0.01  0
               0.183333  0.01  0
            </DataArray>
         </Points>

         <Cells>
            <DataArray type="Int32" Name="connectivity" NumberOfComponents="1" format="ascii">

            </DataArray>
            <DataArray type="Int32" Name="offsets" NumberOfComponents="1" format="ascii">

            </DataArray>
            <DataArray type="UInt8"  Name="types" NumberOfComponents="1" format="ascii">

            </DataArray>
         </Cells>
         <PointData Scalars="Rank " Vectors="Displacement Force ">
            <DataArray type="UInt32" Name="Rank" NumberOfComponents="1" format="ascii">
               0 0 0 0 0 0 0 0 0 0 0 0 0 0 0 0 0 0 0 0 0 0 0 0 0 0 0 0 0 0 0 0 0 0 0 0
            </DataArray>
            <DataArray type="Float64" Name="Displacement" NumberOfComponents="3" format="ascii">
               -0.000211021 2.22674e-06 0.0  -0.000140681 1.48449e-06 0.0  -7.03403e-05 7.42245e-07 0.0  0 0 0.0  7.03403e-05 -7.42245e-07 0.0  0.000140681 -1.48449e-06 0.0  0.000211021 -2.22674e-06 0.0  -0.000255556 -0.00421819 0.0  -0.000185215 -0.00421893 0.0  -0.000114875 -0.00421967 0.0  -4.45347e-05 -0.00422042 0.0  2.58055e-05 -0.00422116 0.0  9.61458e-05 -0.0042219 0.0  0.000166486 -0.00422264 0.0  -0.000214732 -0.000349475 0.0  -0.000218443 -0.000701176 0.0  -0.000222154 -0.00105288 0.0  -0.000225866 -0.00140458 0.0  -0.000229577 -0.00175628 0.0  -0.000233288 -0.00210798 0.0  -0.000236999 -0.00245968 0.0  -0.000240711 -0.00281138 0.0  -0.000244422 -0.00316308 0.0  -0.000248133 -0.00351479 0.0  -0.000251844 -0.00386649 0.0  0.00020731 -0.000353928 0.0  0.000203598 -0.000705629 0.0  0.000199887 -0.00105733 0.0  0.000196176 -0.00140903 0.0  0.000192465 -0.00176073 0.0  0.000188753 -0.00211243 0.0  0.000185042 -0.00246414 0.0  0.000181331 -0.00281584 0.0  0.00017762 -0.00316754 0.0  0.000173909 -0.00351924 0.0  0.000170197 -0.00387094 0.0
            </DataArray>
            <DataArray type="Float64" Name="Force" NumberOfComponents="3" format="ascii">
               0.0140222 0.23033 0.0  1.25125 0.0444629 0.0  1.25462 0.0146237 0.0  -0.346674 0.00391085 0.0  1.20572 -0.0213178 0.0  1.20073 -0.00281199 0.0  0.00797459 0.0325925 0.0  0.0571565 -0.0745562 0.0  0.194777 -0.0226587 0.0  0.185566 -0.019373 0.0  -0.0498873 0.000524175 0.0  0.181119 0.0130288 0.0  0.191235 0.0218624 0.0  0.042268 0.0797702 0.0  0.508784 0.639827 0.0  0.297842 0.561746 0.0  0.268453 0.599343 0.0  0.241582 0.538905 0.0  0.232088 0.488189 0.0  0.230144 0.43019 0.0  0.232038 0.359945 0.0  0.235069 0.27689 0.0  0.246207 0.178771 0.0  0.247091 0.0582282 0.0  0.299909 -0.0897195 0.0  0.464166 0.303475 0.0  0.233287 0.102965 0.0  0.208624 -0.064798 0.0  0.192603 -0.101908 0.0  0.19159 -0.116999 0.0  0.194629 -0.115669 0.0  0.199493 -0.0911893 0.0  0.205019 -0.048923 0.0  0.216801 0.0115562 0.0  0.218046 0.0854766 0.0  0.263935 0.185278 0.0
            </DataArray>
         </PointData>
      </Piece>
   </UnstructuredGrid>
</VTKFile>
