<?xml version="1.0"?>
<VTKFile type="UnstructuredGrid" version="0.1" byte_order="LittleEndian">
   <UnstructuredGrid>
      <Piece NumberOfPoints="36" NumberOfCells="0" >
         <Points>
            <DataArray type="Float64" Name="Position" NumberOfComponents="3" format="ascii">
               0  -0.01  0
               0  -0.00666667  0
               0  -0.00333333  0
               0  0  0
               0  0.00333333  0
               0  0.00666667  0
               0  0.01  0
               0.2  -0.01  0
               0.2  -0.00666667  0
               0.2  -0.00333333  0
               0.2  0  0
               0.2  0.00333333  0
               0.2  0.00666667  0
               0.2  0.01  0
               0.0166667  -0.01  0
               0.0333333  -0.01  0
               0.05  -0.01  0
               0.0666667  -0.01  0
               0.0833333  -0.01  0
               0.1  -0.01  0
               0.116667  -0.01  0
               0.133333  -0.01  0
               0.15  -0.01  0
               0.166667  -0.01  0
               0.183333  -0.01  0
               0.0166667  0.01  0
               0.0333333  0.01  0
               0.05  0.01  0
               0.0666667  0.01  0
               0.0833333  0.01  0
               0.1  0.01  0
               0.116667  0.01  0
               0.133333  0.01  0
               0.15  0.01  0
               0.166667  0.01  0
               0.183333  0.01  0
            </DataArray>
         </Points>

         <Cells>
            <DataArray type="Int32" Name="connectivity" NumberOfComponents="1" format="ascii">

            </DataArray>
            <DataArray type="Int32" Name="offsets" NumberOfComponents="1" format="ascii">

            </DataArray>
            <DataArray type="UInt8"  Name="types" NumberOfComponents="1" format="ascii">

            </DataArray>
         </Cells>
         <PointData Scalars="Rank " Vectors="Displacement Force ">
            <DataArray type="UInt32" Name="Rank" NumberOfComponents="1" format="ascii">
               0 0 0 0 0 0 0 0 0 0 0 0 0 0 0 0 0 0 0 0 0 0 0 0 0 0 0 0 0 0 0 0 0 0 0 0
            </DataArray>
            <DataArray type="Float64" Name="Displacement" NumberOfComponents="3" format="ascii">
               9.71258e-05 4.71682e-07 0.0  6.47505e-05 3.14455e-07 0.0  3.23753e-05 1.57227e-07 0.0  0 0 0.0  -3.23753e-05 -1.57227e-07 0.0  -6.47505e-05 -3.14455e-07 0.0  -9.71258e-05 -4.71682e-07 0.0  8.76922e-05 0.00194299 0.0  5.53169e-05 0.00194283 0.0  2.29416e-05 0.00194267 0.0  -9.43364e-06 0.00194252 0.0  -4.18089e-05 0.00194236 0.0  -7.41842e-05 0.0019422 0.0  -0.000106559 0.00194204 0.0  9.63397e-05 0.000162348 0.0  9.55535e-05 0.000324224 0.0  9.47674e-05 0.000486101 0.0  9.39813e-05 0.000647977 0.0  9.31951e-05 0.000809853 0.0  9.2409e-05 0.00097173 0.0  9.16228e-05 0.00113361 0.0  9.08367e-05 0.00129548 0.0  9.00506e-05 0.00145736 0.0  8.92644e-05 0.00161924 0.0  8.84783e-05 0.00178111 0.0  -9.79119e-05 0.000161405 0.0  -9.86981e-05 0.000323281 0.0  -9.94842e-05 0.000485157 0.0  -0.00010027 0.000647034 0.0  -0.000101056 0.00080891 0.0  -0.000101843 0.000970786 0.0  -0.000102629 0.00113266 0.0  -0.000103415 0.00129454 0.0  -0.000104201 0.00145642 0.0  -0.000104987 0.00161829 0.0  -0.000105773 0.00178017 0.0
            </DataArray>
            <DataArray type="Float64" Name="Force" NumberOfComponents="3" format="ascii">
               0.0030458 0.0627849 0.0  1.21467 0.0139498 0.0  1.22615 0.0238613 0.0  -0.351918 -0.000318557 0.0  1.24691 -0.0248881 0.0  1.23504 -0.0307886 0.0  0.0193314 -0.157157 0.0  0.0554073 -0.0797289 0.0  0.228198 -0.020743 0.0  0.218962 -0.0194414 0.0  -0.0490142 0.000711452 0.0  0.140232 0.00990305 0.0  0.147707 0.00895697 0.0  0.044282 0.0784052 0.0  0.449249 0.0371682 0.0  0.220972 0.179392 0.0  0.198478 0.34269 0.0  0.183991 0.375416 0.0  0.18583 0.394031 0.0  0.193106 0.394021 0.0  0.202859 0.359984 0.0  0.213799 0.295587 0.0  0.231484 0.202695 0.0  0.24034 0.0735274 0.0  0.300415 -0.108358 0.0  0.513561 -0.335814 0.0  0.298734 -0.297048 0.0  0.269148 -0.32915 0.0  0.240351 -0.26769 0.0  0.228751 -0.212035 0.0  0.222445 -0.155948 0.0  0.219982 -0.0973251 0.0  0.219463 -0.037427 0.0  0.224895 0.0269715 0.0  0.220163 0.0911542 0.0  0.259629 0.161248 0.0
            </DataArray>
         </PointData>
      </Piece>
   </UnstructuredGrid>
</VTKFile>
