<?xml version="1.0"?>
<VTKFile type="UnstructuredGrid" version="0.1" byte_order="LittleEndian">
   <UnstructuredGrid>
      <Piece NumberOfPoints="36" NumberOfCells="0" >
         <Points>
            <DataArray type="Float64" Name="Position" NumberOfComponents="3" format="ascii">
               0  -0.01  0
               0  -0.00666667  0
               0  -0.00333333  0
               0  0  0
               0  0.00333333  0
               0  0.00666667  0
               0  0.01  0
               0.2  -0.01  0
               0.2  -0.00666667  0
               0.2  -0.00333333  0
               0.2  0  0
               0.2  0.00333333  0
               0.2  0.00666667  0
               0.2  0.01  0
               0.0166667  -0.01  0
               0.0333333  -0.01  0
               0.05  -0.01  0
               0.0666667  -0.01  0
               0.0833333  -0.01  0
               0.1  -0.01  0
               0.116667  -0.01  0
               0.133333  -0.01  0
               0.15  -0.01  0
               0.166667  -0.01  0
               0.183333  -0.01  0
               0.0166667  0.01  0
               0.0333333  0.01  0
               0.05  0.01  0
               0.0666667  0.01  0
               0.0833333  0.01  0
               0.1  0.01  0
               0.116667  0.01  0
               0.133333  0.01  0
               0.15  0.01  0
               0.166667  0.01  0
               0.183333  0.01  0
            </DataArray>
         </Points>

         <Cells>
            <DataArray type="Int32" Name="connectivity" NumberOfComponents="1" format="ascii">

            </DataArray>
            <DataArray type="Int32" Name="offsets" NumberOfComponents="1" format="ascii">

            </DataArray>
            <DataArray type="UInt8"  Name="types" NumberOfComponents="1" format="ascii">

            </DataArray>
         </Cells>
         <PointData Scalars="Rank " Vectors="Displacement Force ">
            <DataArray type="UInt32" Name="Rank" NumberOfComponents="1" format="ascii">
               0 0 0 0 0 0 0 0 0 0 0 0 0 0 0 0 0 0 0 0 0 0 0 0 0 0 0 0 0 0 0 0 0 0 0 0
            </DataArray>
            <DataArray type="Float64" Name="Displacement" NumberOfComponents="3" format="ascii">
               2.98711e-05 4.46142e-08 0.0  1.99141e-05 2.97428e-08 0.0  9.95703e-06 1.48714e-08 0.0  0 0 0.0  -9.95703e-06 -1.48714e-08 0.0  -1.99141e-05 -2.97428e-08 0.0  -2.98711e-05 -4.46142e-08 0.0  2.89788e-05 0.000597467 0.0  1.90218e-05 0.000597452 0.0  9.06475e-06 0.000597437 0.0  -8.92285e-07 0.000597422 0.0  -1.08493e-05 0.000597407 0.0  -2.08064e-05 0.000597392 0.0  -3.07634e-05 0.000597377 0.0  2.97967e-05 4.98298e-05 0.0  2.97224e-05 9.96149e-05 0.0  2.9648e-05 0.0001494 0.0  2.95737e-05 0.000199185 0.0  2.94993e-05 0.00024897 0.0  2.9425e-05 0.000298756 0.0  2.93506e-05 0.000348541 0.0  2.92762e-05 0.000398326 0.0  2.92019e-05 0.000448111 0.0  2.91275e-05 0.000497896 0.0  2.90532e-05 0.000547681 0.0  -2.99455e-05 4.97406e-05 0.0  -3.00198e-05 9.95257e-05 0.0  -3.00942e-05 0.000149311 0.0  -3.01685e-05 0.000199096 0.0  -3.02429e-05 0.000248881 0.0  -3.03172e-05 0.000298666 0.0  -3.03916e-05 0.000348452 0.0  -3.0466e-05 0.000398237 0.0  -3.05403e-05 0.000448022 0.0  -3.06147e-05 0.000497807 0.0  -3.0689e-05 0.000547592 0.0
            </DataArray>
            <DataArray type="Float64" Name="Force" NumberOfComponents="3" format="ascii">
               0.00821618 0.0429187 0.0  1.21307 0.00444025 0.0  1.22401 0.0174713 0.0  -0.350784 0.000929485 0.0  1.24413 -0.0301236 0.0  1.23372 -0.039974 0.0  0.0147566 -0.175369 0.0  0.0430987 -0.0763405 0.0  0.179854 -0.0145575 0.0  0.171065 -0.0130945 0.0  -0.048329 -0.00159364 0.0  0.183771 0.0246511 0.0  0.192159 0.0241646 0.0  0.057509 0.0810529 0.0  0.469494 -0.0525423 0.0  0.246909 0.0782168 0.0  0.225251 0.21697 0.0  0.204747 0.22647 0.0  0.200434 0.233079 0.0  0.201644 0.22342 0.0  0.204925 0.189246 0.0  0.208807 0.137104 0.0  0.218244 0.0666086 0.0  0.217933 -0.0226252 0.0  0.262985 -0.139976 0.0  0.494206 -0.42026 0.0  0.273555 -0.390083 0.0  0.245265 -0.443387 0.0  0.2207 -0.401379 0.0  0.214666 -0.364212 0.0  0.216136 -0.31877 0.0  0.220879 -0.25933 0.0  0.226825 -0.185935 0.0  0.24046 -0.0977617 0.0  0.244278 0.00729092 0.0  0.29816 0.137431 0.0
            </DataArray>
         </PointData>
      </Piece>
   </UnstructuredGrid>
</VTKFile>
