<?xml version="1.0"?>
<VTKFile type="UnstructuredGrid" version="0.1" byte_order="LittleEndian">
   <UnstructuredGrid>
      <Piece NumberOfPoints="36" NumberOfCells="0" >
         <Points>
            <DataArray type="Float64" Name="Position" NumberOfComponents="3" format="ascii">
               0  -0.01  0
               0  -0.00666667  0
               0  -0.00333333  0
               0  0  0
               0  0.00333333  0
               0  0.00666667  0
               0  0.01  0
               0.2  -0.01  0
               0.2  -0.00666667  0
               0.2  -0.00333333  0
               0.2  0  0
               0.2  0.00333333  0
               0.2  0.00666667  0
               0.2  0.01  0
               0.0166667  -0.01  0
               0.0333333  -0.01  0
               0.05  -0.01  0
               0.0666667  -0.01  0
               0.0833333  -0.01  0
               0.1  -0.01  0
               0.116667  -0.01  0
               0.133333  -0.01  0
               0.15  -0.01  0
               0.166667  -0.01  0
               0.183333  -0.01  0
               0.0166667  0.01  0
               0.0333333  0.01  0
               0.05  0.01  0
               0.0666667  0.01  0
               0.0833333  0.01  0
               0.1  0.01  0
               0.116667  0.01  0
               0.133333  0.01  0
               0.15  0.01  0
               0.166667  0.01  0
               0.183333  0.01  0
            </DataArray>
         </Points>

         <Cells>
            <DataArray type="Int32" Name="connectivity" NumberOfComponents="1" format="ascii">

            </DataArray>
            <DataArray type="Int32" Name="offsets" NumberOfComponents="1" format="ascii">

            </DataArray>
            <DataArray type="UInt8"  Name="types" NumberOfComponents="1" format="ascii">

            </DataArray>
         </Cells>
         <PointData Scalars="Rank " Vectors="Displacement Force ">
            <DataArray type="UInt32" Name="Rank" NumberOfComponents="1" format="ascii">
               0 0 0 0 0 0 0 0 0 0 0 0 0 0 0 0 0 0 0 0 0 0 0 0 0 0 0 0 0 0 0 0 0 0 0 0
            </DataArray>
            <DataArray type="Float64" Name="Displacement" NumberOfComponents="3" format="ascii">
               -0.000219461 2.40845e-06 0.0  -0.000146308 1.60564e-06 0.0  -7.31538e-05 8.02818e-07 0.0  0 0 0.0  7.31538e-05 -8.02818e-07 0.0  0.000146308 -1.60564e-06 0.0  0.000219461 -2.40845e-06 0.0  -0.00026763 -0.00438682 0.0  -0.000194477 -0.00438762 0.0  -0.000121323 -0.00438842 0.0  -4.81691e-05 -0.00438923 0.0  2.49847e-05 -0.00439003 0.0  9.81385e-05 -0.00439083 0.0  0.000171292 -0.00439164 0.0  -0.000223475 -0.00036336 0.0  -0.00022749 -0.000729129 0.0  -0.000231504 -0.0010949 0.0  -0.000235518 -0.00146067 0.0  -0.000239532 -0.00182644 0.0  -0.000243546 -0.00219221 0.0  -0.00024756 -0.00255797 0.0  -0.000251574 -0.00292374 0.0  -0.000255588 -0.00328951 0.0  -0.000259602 -0.00365528 0.0  -0.000263616 -0.00402105 0.0  0.000215447 -0.000368177 0.0  0.000211433 -0.000733946 0.0  0.000207419 -0.00109972 0.0  0.000203405 -0.00146548 0.0  0.000199391 -0.00183125 0.0  0.000195377 -0.00219702 0.0  0.000191363 -0.00256279 0.0  0.000187349 -0.00292856 0.0  0.000183335 -0.00329433 0.0  0.00017932 -0.0036601 0.0  0.000175306 -0.00402587 0.0
            </DataArray>
            <DataArray type="Float64" Name="Force" NumberOfComponents="3" format="ascii">
               0.014509 0.232375 0.0  1.25156 0.0445091 0.0  1.25543 0.0141729 0.0  -0.346931 0.00400376 0.0  1.20512 -0.0213849 0.0  1.19969 -0.00241566 0.0  0.00765121 0.0359059 0.0  0.0569291 -0.0755382 0.0  0.194346 -0.0229963 0.0  0.185249 -0.0194858 0.0  -0.049952 0.00053948 0.0  0.181785 0.0128733 0.0  0.191822 0.0215616 0.0  0.0423751 0.0786821 0.0  0.511164 0.646834 0.0  0.300905 0.56447 0.0  0.271192 0.599024 0.0  0.24398 0.536173 0.0  0.234173 0.483546 0.0  0.231831 0.424216 0.0  0.233357 0.353248 0.0  0.236057 0.269744 0.0  0.246801 0.171855 0.0  0.247263 0.0522507 0.0  0.299493 -0.0945099 0.0  0.462313 0.312667 0.0  0.230819 0.106586 0.0  0.206019 -0.0644689 0.0  0.190365 -0.103897 0.0  0.189575 -0.120576 0.0  0.192851 -0.120816 0.0  0.198054 -0.0974646 0.0  0.203989 -0.0556517 0.0  0.216088 0.00483411 0.0  0.217748 0.0794676 0.0  0.264096 0.180367 0.0
            </DataArray>
         </PointData>
      </Piece>
   </UnstructuredGrid>
</VTKFile>
