<?xml version="1.0"?>
<VTKFile type="UnstructuredGrid" version="0.1" byte_order="LittleEndian">
   <UnstructuredGrid>
      <Piece NumberOfPoints="36" NumberOfCells="0" >
         <Points>
            <DataArray type="Float64" Name="Position" NumberOfComponents="3" format="ascii">
               0  -0.01  0
               0  -0.00666667  0
               0  -0.00333333  0
               0  0  0
               0  0.00333333  0
               0  0.00666667  0
               0  0.01  0
               0.2  -0.01  0
               0.2  -0.00666667  0
               0.2  -0.00333333  0
               0.2  0  0
               0.2  0.00333333  0
               0.2  0.00666667  0
               0.2  0.01  0
               0.0166667  -0.01  0
               0.0333333  -0.01  0
               0.05  -0.01  0
               0.0666667  -0.01  0
               0.0833333  -0.01  0
               0.1  -0.01  0
               0.116667  -0.01  0
               0.133333  -0.01  0
               0.15  -0.01  0
               0.166667  -0.01  0
               0.183333  -0.01  0
               0.0166667  0.01  0
               0.0333333  0.01  0
               0.05  0.01  0
               0.0666667  0.01  0
               0.0833333  0.01  0
               0.1  0.01  0
               0.116667  0.01  0
               0.133333  0.01  0
               0.15  0.01  0
               0.166667  0.01  0
               0.183333  0.01  0
            </DataArray>
         </Points>

         <Cells>
            <DataArray type="Int32" Name="connectivity" NumberOfComponents="1" format="ascii">

            </DataArray>
            <DataArray type="Int32" Name="offsets" NumberOfComponents="1" format="ascii">

            </DataArray>
            <DataArray type="UInt8"  Name="types" NumberOfComponents="1" format="ascii">

            </DataArray>
         </Cells>
         <PointData Scalars="Rank " Vectors="Displacement Force ">
            <DataArray type="UInt32" Name="Rank" NumberOfComponents="1" format="ascii">
               0 0 0 0 0 0 0 0 0 0 0 0 0 0 0 0 0 0 0 0 0 0 0 0 0 0 0 0 0 0 0 0 0 0 0 0
            </DataArray>
            <DataArray type="Float64" Name="Displacement" NumberOfComponents="3" format="ascii">
               -1.39028e-06 9.66443e-11 0.0  -9.26855e-07 6.44295e-11 0.0  -4.63427e-07 3.22148e-11 0.0  0 0 0.0  4.63427e-07 -3.22148e-11 0.0  9.26855e-07 -6.44295e-11 0.0  1.39028e-06 -9.66443e-11 0.0  -1.39222e-06 -2.78056e-05 0.0  -9.28788e-07 -2.78056e-05 0.0  -4.6536e-07 -2.78056e-05 0.0  -1.93289e-09 -2.78056e-05 0.0  4.61495e-07 -2.78057e-05 0.0  9.24922e-07 -2.78057e-05 0.0  1.38835e-06 -2.78057e-05 0.0  -1.39044e-06 -2.31704e-06 0.0  -1.3906e-06 -4.63418e-06 0.0  -1.39077e-06 -6.95132e-06 0.0  -1.39093e-06 -9.26845e-06 0.0  -1.39109e-06 -1.15856e-05 0.0  -1.39125e-06 -1.39027e-05 0.0  -1.39141e-06 -1.62199e-05 0.0  -1.39157e-06 -1.8537e-05 0.0  -1.39173e-06 -2.08541e-05 0.0  -1.39189e-06 -2.31713e-05 0.0  -1.39205e-06 -2.54884e-05 0.0  1.39012e-06 -2.31723e-06 0.0  1.38996e-06 -4.63437e-06 0.0  1.3898e-06 -6.95151e-06 0.0  1.38964e-06 -9.26865e-06 0.0  1.38948e-06 -1.15858e-05 0.0  1.38932e-06 -1.39029e-05 0.0  1.38915e-06 -1.62201e-05 0.0  1.38899e-06 -1.85372e-05 0.0  1.38883e-06 -2.08543e-05 0.0  1.38867e-06 -2.31715e-05 0.0  1.38851e-06 -2.54886e-05 0.0
            </DataArray>
            <DataArray type="Float64" Name="Force" NumberOfComponents="3" format="ascii">
               0.00464112 0.0813247 0.0  1.2265 0.0124402 0.0  1.2314 0.0199688 0.0  -0.347078 0.000664265 0.0  1.23355 -0.0299606 0.0  1.23193 -0.0338651 0.0  0.0168041 -0.147586 0.0  0.0478058 -0.0774221 0.0  0.191182 -0.0197224 0.0  0.182988 -0.0185184 0.0  -0.0485043 -2.43708e-05 0.0  0.183788 0.0187991 0.0  0.192936 0.0183185 0.0  0.0519186 0.0780219 0.0  0.471613 0.076917 0.0  0.24729 0.161895 0.0  0.224885 0.275135 0.0  0.203665 0.268022 0.0  0.200695 0.262406 0.0  0.20283 0.241778 0.0  0.207914 0.200344 0.0  0.213226 0.142007 0.0  0.22545 0.0666798 0.0  0.227413 -0.0255506 0.0  0.277013 -0.144055 0.0  0.493571 -0.309224 0.0  0.271057 -0.300237 0.0  0.241797 -0.375293 0.0  0.220443 -0.361061 0.0  0.21444 -0.337537 0.0  0.214611 -0.301405 0.0  0.218077 -0.249082 0.0  0.222113 -0.181876 0.0  0.233386 -0.0985655 0.0  0.234234 0.003164 0.0  0.283265 0.130368 0.0
            </DataArray>
         </PointData>
      </Piece>
   </UnstructuredGrid>
</VTKFile>
