<?xml version="1.0"?>
<VTKFile type="UnstructuredGrid" version="0.1" byte_order="LittleEndian">
   <UnstructuredGrid>
      <Piece NumberOfPoints="36" NumberOfCells="0" >
         <Points>
            <DataArray type="Float64" Name="Position" NumberOfComponents="3" format="ascii">
               0  -0.01  0
               0  -0.00666667  0
               0  -0.00333333  0
               0  0  0
               0  0.00333333  0
               0  0.00666667  0
               0  0.01  0
               0.2  -0.01  0
               0.2  -0.00666667  0
               0.2  -0.00333333  0
               0.2  0  0
               0.2  0.00333333  0
               0.2  0.00666667  0
               0.2  0.01  0
               0.0166667  -0.01  0
               0.0333333  -0.01  0
               0.05  -0.01  0
               0.0666667  -0.01  0
               0.0833333  -0.01  0
               0.1  -0.01  0
               0.116667  -0.01  0
               0.133333  -0.01  0
               0.15  -0.01  0
               0.166667  -0.01  0
               0.183333  -0.01  0
               0.0166667  0.01  0
               0.0333333  0.01  0
               0.05  0.01  0
               0.0666667  0.01  0
               0.0833333  0.01  0
               0.1  0.01  0
               0.116667  0.01  0
               0.133333  0.01  0
               0.15  0.01  0
               0.166667  0.01  0
               0.183333  0.01  0
            </DataArray>
         </Points>

         <Cells>
            <DataArray type="Int32" Name="connectivity" NumberOfComponents="1" format="ascii">

            </DataArray>
            <DataArray type="Int32" Name="offsets" NumberOfComponents="1" format="ascii">

            </DataArray>
            <DataArray type="UInt8"  Name="types" NumberOfComponents="1" format="ascii">

            </DataArray>
         </Cells>
         <PointData Scalars="Rank " Vectors="Displacement Force ">
            <DataArray type="UInt32" Name="Rank" NumberOfComponents="1" format="ascii">
               0 0 0 0 0 0 0 0 0 0 0 0 0 0 0 0 0 0 0 0 0 0 0 0 0 0 0 0 0 0 0 0 0 0 0 0
            </DataArray>
            <DataArray type="Float64" Name="Displacement" NumberOfComponents="3" format="ascii">
               -1.87103e-05 1.75037e-08 0.0  -1.24735e-05 1.16692e-08 0.0  -6.23676e-06 5.83458e-09 0.0  0 0 0.0  6.23676e-06 -5.83458e-09 0.0  1.24735e-05 -1.16692e-08 0.0  1.87103e-05 -1.75037e-08 0.0  -1.90603e-05 -0.000374188 0.0  -1.28236e-05 -0.000374194 0.0  -6.58683e-06 -0.0003742 0.0  -3.50075e-07 -0.000374205 0.0  5.88668e-06 -0.000374211 0.0  1.21234e-05 -0.000374217 0.0  1.83602e-05 -0.000374223 0.0  -1.87394e-05 -3.11663e-05 0.0  -1.87686e-05 -6.23501e-05 0.0  -1.87978e-05 -9.35339e-05 0.0  -1.8827e-05 -0.000124718 0.0  -1.88561e-05 -0.000155901 0.0  -1.88853e-05 -0.000187085 0.0  -1.89145e-05 -0.000218269 0.0  -1.89437e-05 -0.000249453 0.0  -1.89728e-05 -0.000280637 0.0  -1.9002e-05 -0.00031182 0.0  -1.90312e-05 -0.000343004 0.0  1.86811e-05 -3.12013e-05 0.0  1.86519e-05 -6.23851e-05 0.0  1.86228e-05 -9.35689e-05 0.0  1.85936e-05 -0.000124753 0.0  1.85644e-05 -0.000155936 0.0  1.85352e-05 -0.00018712 0.0  1.85061e-05 -0.000218304 0.0  1.84769e-05 -0.000249488 0.0  1.84477e-05 -0.000280672 0.0  1.84185e-05 -0.000311855 0.0  1.83894e-05 -0.000343039 0.0
            </DataArray>
            <DataArray type="Float64" Name="Force" NumberOfComponents="3" format="ascii">
               0.00965801 0.0842378 0.0  1.22318 0.012221 0.0  1.23301 0.0193237 0.0  -0.351082 0.000472731 0.0  1.24009 -0.0306243 0.0  1.23034 -0.0342515 0.0  0.0140371 -0.145577 0.0  0.0475388 -0.0782468 0.0  0.178666 -0.018424 0.0  0.170418 -0.0172596 0.0  -0.0487559 -0.000338437 0.0  0.187826 0.0194852 0.0  0.196891 0.0191224 0.0  0.0523693 0.0770408 0.0  0.475751 0.0840478 0.0  0.254391 0.14668 0.0  0.228183 0.241706 0.0  0.205788 0.24555 0.0  0.20236 0.239234 0.0  0.20412 0.214964 0.0  0.208507 0.172373 0.0  0.213019 0.114821 0.0  0.224109 0.0423077 0.0  0.225743 -0.0435949 0.0  0.273862 -0.152682 0.0  0.491101 -0.303411 0.0  0.268228 -0.298631 0.0  0.235414 -0.371512 0.0  0.21511 -0.369706 0.0  0.21131 -0.35731 0.0  0.212481 -0.326928 0.0  0.216696 -0.277264 0.0  0.222162 -0.209843 0.0  0.234286 -0.123794 0.0  0.235997 -0.015965 0.0  0.286414 0.120756 0.0
            </DataArray>
         </PointData>
      </Piece>
   </UnstructuredGrid>
</VTKFile>
