<?xml version="1.0"?>
<VTKFile type="UnstructuredGrid" version="0.1" byte_order="LittleEndian">
   <UnstructuredGrid>
      <Piece NumberOfPoints="36" NumberOfCells="0" >
         <Points>
            <DataArray type="Float64" Name="Position" NumberOfComponents="3" format="ascii">
               0  -0.01  0
               0  -0.00666667  0
               0  -0.00333333  0
               0  0  0
               0  0.00333333  0
               0  0.00666667  0
               0  0.01  0
               0.2  -0.01  0
               0.2  -0.00666667  0
               0.2  -0.00333333  0
               0.2  0  0
               0.2  0.00333333  0
               0.2  0.00666667  0
               0.2  0.01  0
               0.0166667  -0.01  0
               0.0333333  -0.01  0
               0.05  -0.01  0
               0.0666667  -0.01  0
               0.0833333  -0.01  0
               0.1  -0.01  0
               0.116667  -0.01  0
               0.133333  -0.01  0
               0.15  -0.01  0
               0.166667  -0.01  0
               0.183333  -0.01  0
               0.0166667  0.01  0
               0.0333333  0.01  0
               0.05  0.01  0
               0.0666667  0.01  0
               0.0833333  0.01  0
               0.1  0.01  0
               0.116667  0.01  0
               0.133333  0.01  0
               0.15  0.01  0
               0.166667  0.01  0
               0.183333  0.01  0
            </DataArray>
         </Points>

         <Cells>
            <DataArray type="Int32" Name="connectivity" NumberOfComponents="1" format="ascii">

            </DataArray>
            <DataArray type="Int32" Name="offsets" NumberOfComponents="1" format="ascii">

            </DataArray>
            <DataArray type="UInt8"  Name="types" NumberOfComponents="1" format="ascii">

            </DataArray>
         </Cells>
         <PointData Scalars="Rank " Vectors="Displacement Force ">
            <DataArray type="UInt32" Name="Rank" NumberOfComponents="1" format="ascii">
               0 0 0 0 0 0 0 0 0 0 0 0 0 0 0 0 0 0 0 0 0 0 0 0 0 0 0 0 0 0 0 0 0 0 0 0
            </DataArray>
            <DataArray type="Float64" Name="Displacement" NumberOfComponents="3" format="ascii">
               8.85052e-07 3.91658e-11 0.0  5.90034e-07 2.61106e-11 0.0  2.95017e-07 1.30553e-11 0.0  0 0 0.0  -2.95017e-07 -1.30553e-11 0.0  -5.90034e-07 -2.61106e-11 0.0  -8.85052e-07 -3.91658e-11 0.0  8.84268e-07 1.77011e-05 0.0  5.89251e-07 1.77011e-05 0.0  2.94234e-07 1.7701e-05 0.0  -7.83317e-10 1.7701e-05 0.0  -2.95801e-07 1.7701e-05 0.0  -5.90818e-07 1.7701e-05 0.0  -8.85835e-07 1.7701e-05 0.0  8.84986e-07 1.47513e-06 0.0  8.84921e-07 2.95021e-06 0.0  8.84856e-07 4.4253e-06 0.0  8.84791e-07 5.90038e-06 0.0  8.84725e-07 7.37547e-06 0.0  8.8466e-07 8.85056e-06 0.0  8.84595e-07 1.03256e-05 0.0  8.8453e-07 1.18007e-05 0.0  8.84464e-07 1.32758e-05 0.0  8.84399e-07 1.47509e-05 0.0  8.84334e-07 1.6226e-05 0.0  -8.85117e-07 1.47505e-06 0.0  -8.85182e-07 2.95013e-06 0.0  -8.85248e-07 4.42522e-06 0.0  -8.85313e-07 5.90031e-06 0.0  -8.85378e-07 7.37539e-06 0.0  -8.85443e-07 8.85048e-06 0.0  -8.85509e-07 1.03256e-05 0.0  -8.85574e-07 1.18007e-05 0.0  -8.85639e-07 1.32757e-05 0.0  -8.85705e-07 1.47508e-05 0.0  -8.8577e-07 1.62259e-05 0.0
            </DataArray>
            <DataArray type="Float64" Name="Force" NumberOfComponents="3" format="ascii">
               0.00340644 0.117106 0.0  1.24304 0.0171472 0.0  1.25033 0.023985 0.0  -0.353342 0.000189956 0.0  1.25149 -0.03112 0.0  1.24734 -0.0332041 0.0  0.0127368 -0.170355 0.0  0.0620892 -0.0378994 0.0  0.195827 -0.017483 0.0  0.185731 -0.0156338 0.0  -0.0492004 4.33928e-05 0.0  0.18612 0.015579 0.0  0.196534 0.0160725 0.0  0.0639827 0.0385594 0.0  0.476276 0.175263 0.0  0.256118 0.231131 0.0  0.228234 0.328786 0.0  0.208998 0.343236 0.0  0.209311 0.345326 0.0  0.21622 0.333996 0.0  0.226686 0.305693 0.0  0.237635 0.258498 0.0  0.256033 0.190579 0.0  0.262062 0.091647 0.0  0.324477 -0.0346825 0.0  0.489077 -0.362029 0.0  0.268155 -0.357745 0.0  0.239318 -0.424267 0.0  0.215896 -0.40323 0.0  0.214907 -0.396152 0.0  0.221211 -0.379263 0.0  0.231376 -0.344167 0.0  0.242114 -0.289819 0.0  0.260245 -0.215006 0.0  0.265779 -0.108333 0.0  0.327883 0.0245246 0.0
            </DataArray>
         </PointData>
      </Piece>
   </UnstructuredGrid>
</VTKFile>
