<?xml version="1.0"?>
<VTKFile type="UnstructuredGrid" version="0.1" byte_order="LittleEndian">
   <UnstructuredGrid>
      <Piece NumberOfPoints="36" NumberOfCells="0" >
         <Points>
            <DataArray type="Float64" Name="Position" NumberOfComponents="3" format="ascii">
               0  -0.01  0
               0  -0.00666667  0
               0  -0.00333333  0
               0  0  0
               0  0.00333333  0
               0  0.00666667  0
               0  0.01  0
               0.2  -0.01  0
               0.2  -0.00666667  0
               0.2  -0.00333333  0
               0.2  0  0
               0.2  0.00333333  0
               0.2  0.00666667  0
               0.2  0.01  0
               0.0166667  -0.01  0
               0.0333333  -0.01  0
               0.05  -0.01  0
               0.0666667  -0.01  0
               0.0833333  -0.01  0
               0.1  -0.01  0
               0.116667  -0.01  0
               0.133333  -0.01  0
               0.15  -0.01  0
               0.166667  -0.01  0
               0.183333  -0.01  0
               0.0166667  0.01  0
               0.0333333  0.01  0
               0.05  0.01  0
               0.0666667  0.01  0
               0.0833333  0.01  0
               0.1  0.01  0
               0.116667  0.01  0
               0.133333  0.01  0
               0.15  0.01  0
               0.166667  0.01  0
               0.183333  0.01  0
            </DataArray>
         </Points>

         <Cells>
            <DataArray type="Int32" Name="connectivity" NumberOfComponents="1" format="ascii">

            </DataArray>
            <DataArray type="Int32" Name="offsets" NumberOfComponents="1" format="ascii">

            </DataArray>
            <DataArray type="UInt8"  Name="types" NumberOfComponents="1" format="ascii">

            </DataArray>
         </Cells>
         <PointData Scalars="Rank " Vectors="Displacement Force ">
            <DataArray type="UInt32" Name="Rank" NumberOfComponents="1" format="ascii">
               0 0 0 0 0 0 0 0 0 0 0 0 0 0 0 0 0 0 0 0 0 0 0 0 0 0 0 0 0 0 0 0 0 0 0 0
            </DataArray>
            <DataArray type="Float64" Name="Displacement" NumberOfComponents="3" format="ascii">
               -0.000169911 1.44358e-06 0.0  -0.000113274 9.62389e-07 0.0  -5.66368e-05 4.81195e-07 0.0  0 0 0.0  5.66368e-05 -4.81195e-07 0.0  0.000113274 -9.62389e-07 0.0  0.000169911 -1.44358e-06 0.0  -0.000198782 -0.00339677 0.0  -0.000142145 -0.00339725 0.0  -8.55085e-05 -0.00339773 0.0  -2.88717e-05 -0.00339821 0.0  2.77652e-05 -0.00339869 0.0  8.4402e-05 -0.00339917 0.0  0.000141039 -0.00339965 0.0  -0.000172317 -0.000281741 0.0  -0.000174722 -0.000564925 0.0  -0.000177128 -0.000848109 0.0  -0.000179534 -0.00113129 0.0  -0.00018194 -0.00141448 0.0  -0.000184346 -0.00169766 0.0  -0.000186752 -0.00198085 0.0  -0.000189158 -0.00226403 0.0  -0.000191564 -0.00254721 0.0  -0.00019397 -0.0028304 0.0  -0.000196376 -0.00311358 0.0  0.000167505 -0.000284628 0.0  0.000165099 -0.000567812 0.0  0.000162693 -0.000850996 0.0  0.000160287 -0.00113418 0.0  0.000157881 -0.00141736 0.0  0.000155475 -0.00170055 0.0  0.000153069 -0.00198373 0.0  0.000150663 -0.00226692 0.0  0.000148257 -0.0025501 0.0  0.000145851 -0.00283329 0.0  0.000143445 -0.00311647 0.0
            </DataArray>
            <DataArray type="Float64" Name="Force" NumberOfComponents="3" format="ascii">
               0.0124994 0.212901 0.0  1.24786 0.0417309 0.0  1.25066 0.0163407 0.0  -0.346561 0.00351564 0.0  1.21073 -0.0218224 0.0  1.20615 -0.00728469 0.0  0.00928062 0.00750092 0.0  0.0567888 -0.0721544 0.0  0.195814 -0.021502 0.0  0.186448 -0.0187956 0.0  -0.0498894 0.000446497 0.0  0.180453 0.0139387 0.0  0.190567 0.0226271 0.0  0.0425455 0.0825004 0.0  0.498849 0.573479 0.0  0.284853 0.519629 0.0  0.256983 0.570658 0.0  0.231356 0.521552 0.0  0.223123 0.479488 0.0  0.222651 0.428213 0.0  0.225942 0.362962 0.0  0.230025 0.283451 0.0  0.242274 0.187366 0.0  0.244727 0.0666771 0.0  0.298479 -0.0820241 0.0  0.471416 0.223804 0.0  0.243015 0.0555524 0.0  0.219137 -0.0955636 0.0  0.201619 -0.118008 0.0  0.198686 -0.12218 0.0  0.199991 -0.114613 0.0  0.204019 -0.0860482 0.0  0.208811 -0.0415266 0.0  0.219958 0.020313 0.0  0.220258 0.0940866 0.0  0.265112 0.193493 0.0
            </DataArray>
         </PointData>
      </Piece>
   </UnstructuredGrid>
</VTKFile>
