<?xml version="1.0"?>
<VTKFile type="UnstructuredGrid" version="0.1" byte_order="LittleEndian">
   <UnstructuredGrid>
      <Piece NumberOfPoints="36" NumberOfCells="0" >
         <Points>
            <DataArray type="Float64" Name="Position" NumberOfComponents="3" format="ascii">
               0  -0.01  0
               0  -0.00666667  0
               0  -0.00333333  0
               0  0  0
               0  0.00333333  0
               0  0.00666667  0
               0  0.01  0
               0.2  -0.01  0
               0.2  -0.00666667  0
               0.2  -0.00333333  0
               0.2  0  0
               0.2  0.00333333  0
               0.2  0.00666667  0
               0.2  0.01  0
               0.0166667  -0.01  0
               0.0333333  -0.01  0
               0.05  -0.01  0
               0.0666667  -0.01  0
               0.0833333  -0.01  0
               0.1  -0.01  0
               0.116667  -0.01  0
               0.133333  -0.01  0
               0.15  -0.01  0
               0.166667  -0.01  0
               0.183333  -0.01  0
               0.0166667  0.01  0
               0.0333333  0.01  0
               0.05  0.01  0
               0.0666667  0.01  0
               0.0833333  0.01  0
               0.1  0.01  0
               0.116667  0.01  0
               0.133333  0.01  0
               0.15  0.01  0
               0.166667  0.01  0
               0.183333  0.01  0
            </DataArray>
         </Points>

         <Cells>
            <DataArray type="Int32" Name="connectivity" NumberOfComponents="1" format="ascii">

            </DataArray>
            <DataArray type="Int32" Name="offsets" NumberOfComponents="1" format="ascii">

            </DataArray>
            <DataArray type="UInt8"  Name="types" NumberOfComponents="1" format="ascii">

            </DataArray>
         </Cells>
         <PointData Scalars="Rank " Vectors="Displacement Force ">
            <DataArray type="UInt32" Name="Rank" NumberOfComponents="1" format="ascii">
               0 0 0 0 0 0 0 0 0 0 0 0 0 0 0 0 0 0 0 0 0 0 0 0 0 0 0 0 0 0 0 0 0 0 0 0
            </DataArray>
            <DataArray type="Float64" Name="Displacement" NumberOfComponents="3" format="ascii">
               -1.47685e-06 1.09054e-10 0.0  -9.84565e-07 7.27026e-11 0.0  -4.92282e-07 3.63513e-11 0.0  0 0 0.0  4.92282e-07 -3.63513e-11 0.0  9.84565e-07 -7.27026e-11 0.0  1.47685e-06 -1.09054e-10 0.0  -1.47903e-06 -2.95368e-05 0.0  -9.86746e-07 -2.95369e-05 0.0  -4.94463e-07 -2.95369e-05 0.0  -2.18108e-09 -2.95369e-05 0.0  4.90101e-07 -2.9537e-05 0.0  9.82384e-07 -2.9537e-05 0.0  1.47467e-06 -2.95371e-05 0.0  -1.47703e-06 -2.4613e-06 0.0  -1.47721e-06 -4.92271e-06 0.0  -1.47739e-06 -7.38413e-06 0.0  -1.47757e-06 -9.84554e-06 0.0  -1.47776e-06 -1.2307e-05 0.0  -1.47794e-06 -1.47684e-05 0.0  -1.47812e-06 -1.72298e-05 0.0  -1.4783e-06 -1.96912e-05 0.0  -1.47848e-06 -2.21526e-05 0.0  -1.47866e-06 -2.4614e-05 0.0  -1.47885e-06 -2.70754e-05 0.0  1.47667e-06 -2.46152e-06 0.0  1.47648e-06 -4.92293e-06 0.0  1.4763e-06 -7.38434e-06 0.0  1.47612e-06 -9.84576e-06 0.0  1.47594e-06 -1.23072e-05 0.0  1.47576e-06 -1.47686e-05 0.0  1.47557e-06 -1.723e-05 0.0  1.47539e-06 -1.96914e-05 0.0  1.47521e-06 -2.21528e-05 0.0  1.47503e-06 -2.46142e-05 0.0  1.47485e-06 -2.70756e-05 0.0
            </DataArray>
            <DataArray type="Float64" Name="Force" NumberOfComponents="3" format="ascii">
               0.00751922 0.106887 0.0  1.22531 0.0189545 0.0  1.23638 0.0224207 0.0  -0.352508 0.000514596 0.0  1.23942 -0.0282632 0.0  1.22774 -0.0277824 0.0  0.0165713 -0.124827 0.0  0.0510124 -0.0706945 0.0  0.193616 -0.0169082 0.0  0.186685 -0.017904 0.0  -0.0493924 -0.000100535 0.0  0.185078 0.0200642 0.0  0.192184 0.0215348 0.0  0.0483497 0.0872114 0.0  0.467698 0.173814 0.0  0.2417 0.243424 0.0  0.218548 0.356957 0.0  0.197698 0.351131 0.0  0.195503 0.346096 0.0  0.19862 0.324837 0.0  0.204416 0.280258 0.0  0.210917 0.217161 0.0  0.224442 0.135777 0.0  0.228539 0.0317483 0.0  0.281235 -0.100192 0.0  0.498381 -0.21603 0.0  0.276296 -0.218684 0.0  0.248296 -0.291647 0.0  0.226669 -0.276892 0.0  0.220374 -0.25093 0.0  0.219271 -0.213712 0.0  0.22138 -0.162496 0.0  0.224032 -0.0994327 0.0  0.233441 -0.0222062 0.0  0.23244 0.0667578 0.0  0.278081 0.180517 0.0
            </DataArray>
         </PointData>
      </Piece>
   </UnstructuredGrid>
</VTKFile>
