<?xml version="1.0"?>
<VTKFile type="UnstructuredGrid" version="0.1" byte_order="LittleEndian">
   <UnstructuredGrid>
      <Piece NumberOfPoints="36" NumberOfCells="0" >
         <Points>
            <DataArray type="Float64" Name="Position" NumberOfComponents="3" format="ascii">
               0  -0.01  0
               0  -0.00666667  0
               0  -0.00333333  0
               0  0  0
               0  0.00333333  0
               0  0.00666667  0
               0  0.01  0
               0.2  -0.01  0
               0.2  -0.00666667  0
               0.2  -0.00333333  0
               0.2  0  0
               0.2  0.00333333  0
               0.2  0.00666667  0
               0.2  0.01  0
               0.0166667  -0.01  0
               0.0333333  -0.01  0
               0.05  -0.01  0
               0.0666667  -0.01  0
               0.0833333  -0.01  0
               0.1  -0.01  0
               0.116667  -0.01  0
               0.133333  -0.01  0
               0.15  -0.01  0
               0.166667  -0.01  0
               0.183333  -0.01  0
               0.0166667  0.01  0
               0.0333333  0.01  0
               0.05  0.01  0
               0.0666667  0.01  0
               0.0833333  0.01  0
               0.1  0.01  0
               0.116667  0.01  0
               0.133333  0.01  0
               0.15  0.01  0
               0.166667  0.01  0
               0.183333  0.01  0
            </DataArray>
         </Points>

         <Cells>
            <DataArray type="Int32" Name="connectivity" NumberOfComponents="1" format="ascii">

            </DataArray>
            <DataArray type="Int32" Name="offsets" NumberOfComponents="1" format="ascii">

            </DataArray>
            <DataArray type="UInt8"  Name="types" NumberOfComponents="1" format="ascii">

            </DataArray>
         </Cells>
         <PointData Scalars="Rank " Vectors="Displacement Force ">
            <DataArray type="UInt32" Name="Rank" NumberOfComponents="1" format="ascii">
               0 0 0 0 0 0 0 0 0 0 0 0 0 0 0 0 0 0 0 0 0 0 0 0 0 0 0 0 0 0 0 0 0 0 0 0
            </DataArray>
            <DataArray type="Float64" Name="Displacement" NumberOfComponents="3" format="ascii">
               0.000111064 6.16779e-07 0.0  7.40426e-05 4.11186e-07 0.0  3.70213e-05 2.05593e-07 0.0  0 0 0.0  -3.70213e-05 -2.05593e-07 0.0  -7.40426e-05 -4.11186e-07 0.0  -0.000111064 -6.16779e-07 0.0  9.87284e-05 0.0022219 0.0  6.1707e-05 0.00222169 0.0  2.46857e-05 0.00222148 0.0  -1.23356e-05 0.00222128 0.0  -4.93569e-05 0.00222107 0.0  -8.63782e-05 0.00222087 0.0  -0.0001234 0.00222066 0.0  0.000110036 0.000185723 0.0  0.000109008 0.00037083 0.0  0.00010798 0.000555936 0.0  0.000106952 0.000741043 0.0  0.000105924 0.00092615 0.0  0.000104896 0.00111126 0.0  0.000103868 0.00129636 0.0  0.00010284 0.00148147 0.0  0.000101812 0.00166658 0.0  0.000100784 0.00185168 0.0  9.97563e-05 0.00203679 0.0  -0.000112092 0.00018449 0.0  -0.00011312 0.000369596 0.0  -0.000114148 0.000554703 0.0  -0.000115176 0.00073981 0.0  -0.000116204 0.000924916 0.0  -0.000117232 0.00111002 0.0  -0.00011826 0.00129513 0.0  -0.000119288 0.00148024 0.0  -0.000120316 0.00166534 0.0  -0.000121344 0.00185045 0.0  -0.000122372 0.00203556 0.0
            </DataArray>
            <DataArray type="Float64" Name="Force" NumberOfComponents="3" format="ascii">
               0.00684741 -0.0273778 0.0  1.19953 -0.00930444 0.0  1.2123 0.0140164 0.0  -0.351513 0.000832955 0.0  1.25489 -0.0284649 0.0  1.24277 -0.0488837 0.0  0.0152185 -0.228422 0.0  0.0360956 -0.0642217 0.0  0.182809 -0.00426386 0.0  0.173704 -0.00353757 0.0  -0.0490554 -0.00384231 0.0  0.18495 0.031607 0.0  0.192699 0.0321512 0.0  0.0654087 0.0911438 0.0  0.461936 -0.285931 0.0  0.238973 -0.0598916 0.0  0.21656 0.149523 0.0  0.202155 0.218327 0.0  0.200659 0.250105 0.0  0.200572 0.258463 0.0  0.201913 0.238797 0.0  0.20389 0.195742 0.0  0.210835 0.131383 0.0  0.209074 0.0399989 0.0  0.250667 -0.0863924 0.0  0.504776 -0.624501 0.0  0.288056 -0.530349 0.0  0.253167 -0.531047 0.0  0.224459 -0.439201 0.0  0.2173 -0.37014 0.0  0.218531 -0.302013 0.0  0.224166 -0.226575 0.0  0.232098 -0.142783 0.0  0.248189 -0.047929 0.0  0.254338 0.0560318 0.0  0.315381 0.180259 0.0
            </DataArray>
         </PointData>
      </Piece>
   </UnstructuredGrid>
</VTKFile>
