<?xml version="1.0"?>
<VTKFile type="UnstructuredGrid" version="0.1" byte_order="LittleEndian">
   <UnstructuredGrid>
      <Piece NumberOfPoints="36" NumberOfCells="0" >
         <Points>
            <DataArray type="Float64" Name="Position" NumberOfComponents="3" format="ascii">
               0  -0.01  0
               0  -0.00666667  0
               0  -0.00333333  0
               0  0  0
               0  0.00333333  0
               0  0.00666667  0
               0  0.01  0
               0.2  -0.01  0
               0.2  -0.00666667  0
               0.2  -0.00333333  0
               0.2  0  0
               0.2  0.00333333  0
               0.2  0.00666667  0
               0.2  0.01  0
               0.0166667  -0.01  0
               0.0333333  -0.01  0
               0.05  -0.01  0
               0.0666667  -0.01  0
               0.0833333  -0.01  0
               0.1  -0.01  0
               0.116667  -0.01  0
               0.133333  -0.01  0
               0.15  -0.01  0
               0.166667  -0.01  0
               0.183333  -0.01  0
               0.0166667  0.01  0
               0.0333333  0.01  0
               0.05  0.01  0
               0.0666667  0.01  0
               0.0833333  0.01  0
               0.1  0.01  0
               0.116667  0.01  0
               0.133333  0.01  0
               0.15  0.01  0
               0.166667  0.01  0
               0.183333  0.01  0
            </DataArray>
         </Points>

         <Cells>
            <DataArray type="Int32" Name="connectivity" NumberOfComponents="1" format="ascii">

            </DataArray>
            <DataArray type="Int32" Name="offsets" NumberOfComponents="1" format="ascii">

            </DataArray>
            <DataArray type="UInt8"  Name="types" NumberOfComponents="1" format="ascii">

            </DataArray>
         </Cells>
         <PointData Scalars="Rank " Vectors="Displacement Force ">
            <DataArray type="UInt32" Name="Rank" NumberOfComponents="1" format="ascii">
               0 0 0 0 0 0 0 0 0 0 0 0 0 0 0 0 0 0 0 0 0 0 0 0 0 0 0 0 0 0 0 0 0 0 0 0
            </DataArray>
            <DataArray type="Float64" Name="Displacement" NumberOfComponents="3" format="ascii">
               -6.81895e-05 2.32493e-07 0.0  -4.54596e-05 1.54995e-07 0.0  -2.27298e-05 7.74976e-08 0.0  0 0 0.0  2.27298e-05 -7.74976e-08 0.0  4.54596e-05 -1.54995e-07 0.0  6.81895e-05 -2.32493e-07 0.0  -7.28393e-05 -0.00136356 0.0  -5.01095e-05 -0.00136363 0.0  -2.73797e-05 -0.00136371 0.0  -4.64986e-06 -0.00136379 0.0  1.808e-05 -0.00136387 0.0  4.08098e-05 -0.00136394 0.0  6.35396e-05 -0.00136402 0.0  -6.85769e-05 -0.000113417 0.0  -6.89644e-05 -0.000227066 0.0  -6.93519e-05 -0.000340715 0.0  -6.97394e-05 -0.000454364 0.0  -7.01269e-05 -0.000568013 0.0  -7.05144e-05 -0.000681662 0.0  -7.09019e-05 -0.000795311 0.0  -7.12894e-05 -0.00090896 0.0  -7.16769e-05 -0.00102261 0.0  -7.20643e-05 -0.00113626 0.0  -7.24518e-05 -0.00124991 0.0  6.7802e-05 -0.000113882 0.0  6.74145e-05 -0.000227531 0.0  6.7027e-05 -0.00034118 0.0  6.66395e-05 -0.000454829 0.0  6.6252e-05 -0.000568478 0.0  6.58645e-05 -0.000682127 0.0  6.5477e-05 -0.000795776 0.0  6.50896e-05 -0.000909425 0.0  6.47021e-05 -0.00102307 0.0  6.43146e-05 -0.00113672 0.0  6.39271e-05 -0.00125037 0.0
            </DataArray>
            <DataArray type="Float64" Name="Force" NumberOfComponents="3" format="ascii">
               0.0104342 0.154997 0.0  1.23577 0.0278797 0.0  1.24045 0.0224787 0.0  -0.348558 0.000889288 0.0  1.22791 -0.0269844 0.0  1.22106 -0.018218 0.0  0.0127865 -0.0732839 0.0  0.0534384 -0.0711013 0.0  0.195785 -0.0171775 0.0  0.18682 -0.0192853 0.0  -0.0501574 4.68616e-05 0.0  0.182839 0.0184085 0.0  0.19214 0.0213191 0.0  0.0451727 0.0864996 0.0  0.480525 0.348099 0.0  0.259287 0.343558 0.0  0.229117 0.422269 0.0  0.209001 0.42121 0.0  0.204445 0.405559 0.0  0.207149 0.373732 0.0  0.212579 0.322363 0.0  0.218213 0.252048 0.0  0.231451 0.163779 0.0  0.235247 0.0516704 0.0  0.28882 -0.08854 0.0  0.490013 -0.0368292 0.0  0.268146 -0.0888209 0.0  0.234841 -0.167772 0.0  0.212908 -0.179693 0.0  0.210588 -0.185793 0.0  0.211289 -0.163867 0.0  0.214457 -0.123214 0.0  0.218057 -0.0685823 0.0  0.228148 0.00191745 0.0  0.227247 0.0837257 0.0  0.271928 0.19037 0.0
            </DataArray>
         </PointData>
      </Piece>
   </UnstructuredGrid>
</VTKFile>
