<?xml version="1.0"?>
<VTKFile type="UnstructuredGrid" version="0.1" byte_order="LittleEndian">
   <UnstructuredGrid>
      <Piece NumberOfPoints="36" NumberOfCells="0" >
         <Points>
            <DataArray type="Float64" Name="Position" NumberOfComponents="3" format="ascii">
               0  -0.01  0
               0  -0.00666667  0
               0  -0.00333333  0
               0  0  0
               0  0.00333333  0
               0  0.00666667  0
               0  0.01  0
               0.2  -0.01  0
               0.2  -0.00666667  0
               0.2  -0.00333333  0
               0.2  0  0
               0.2  0.00333333  0
               0.2  0.00666667  0
               0.2  0.01  0
               0.0166667  -0.01  0
               0.0333333  -0.01  0
               0.05  -0.01  0
               0.0666667  -0.01  0
               0.0833333  -0.01  0
               0.1  -0.01  0
               0.116667  -0.01  0
               0.133333  -0.01  0
               0.15  -0.01  0
               0.166667  -0.01  0
               0.183333  -0.01  0
               0.0166667  0.01  0
               0.0333333  0.01  0
               0.05  0.01  0
               0.0666667  0.01  0
               0.0833333  0.01  0
               0.1  0.01  0
               0.116667  0.01  0
               0.133333  0.01  0
               0.15  0.01  0
               0.166667  0.01  0
               0.183333  0.01  0
            </DataArray>
         </Points>

         <Cells>
            <DataArray type="Int32" Name="connectivity" NumberOfComponents="1" format="ascii">

            </DataArray>
            <DataArray type="Int32" Name="offsets" NumberOfComponents="1" format="ascii">

            </DataArray>
            <DataArray type="UInt8"  Name="types" NumberOfComponents="1" format="ascii">

            </DataArray>
         </Cells>
         <PointData Scalars="Rank " Vectors="Displacement Force ">
            <DataArray type="UInt32" Name="Rank" NumberOfComponents="1" format="ascii">
               0 0 0 0 0 0 0 0 0 0 0 0 0 0 0 0 0 0 0 0 0 0 0 0 0 0 0 0 0 0 0 0 0 0 0 0
            </DataArray>
            <DataArray type="Float64" Name="Displacement" NumberOfComponents="3" format="ascii">
               0.000171655 1.47338e-06 0.0  0.000114437 9.82253e-07 0.0  5.72183e-05 4.91127e-07 0.0  0 0 0.0  -5.72183e-05 -4.91127e-07 0.0  -0.000114437 -9.82253e-07 0.0  -0.000171655 -1.47338e-06 0.0  0.000142187 0.00343457 0.0  8.4969e-05 0.00343408 0.0  2.77507e-05 0.00343359 0.0  -2.94676e-05 0.0034331 0.0  -8.66859e-05 0.00343261 0.0  -0.000143904 0.00343212 0.0  -0.000201123 0.00343163 0.0  0.000169199 0.000287565 0.0  0.000166744 0.000573657 0.0  0.000164288 0.000859748 0.0  0.000161832 0.00114584 0.0  0.000159377 0.00143193 0.0  0.000156921 0.00171802 0.0  0.000154466 0.00200411 0.0  0.00015201 0.00229021 0.0  0.000149554 0.0025763 0.0  0.000147099 0.00286239 0.0  0.000144643 0.00314848 0.0  -0.000174111 0.000284618 0.0  -0.000176566 0.00057071 0.0  -0.000179022 0.000856801 0.0  -0.000181477 0.00114289 0.0  -0.000183933 0.00142898 0.0  -0.000186389 0.00171508 0.0  -0.000188844 0.00200117 0.0  -0.0001913 0.00228726 0.0  -0.000193756 0.00257335 0.0  -0.000196211 0.00285944 0.0  -0.000198667 0.00314553 0.0
            </DataArray>
            <DataArray type="Float64" Name="Force" NumberOfComponents="3" format="ascii">
               0.00373393 -0.0720602 0.0  1.19113 -0.0152236 0.0  1.20114 0.0113663 0.0  -0.349127 -0.00303944 0.0  1.25848 -0.0208514 0.0  1.24931 -0.0581049 0.0  0.0184098 -0.257929 0.0  0.0409963 -0.0761427 0.0  0.180581 -0.0203658 0.0  0.171447 -0.011692 0.0  -0.0489168 -0.000734185 0.0  0.187357 0.0207547 0.0  0.195709 0.0242178 0.0  0.0591568 0.0775785 0.0  0.445617 -0.428122 0.0  0.21663 -0.173745 0.0  0.193441 0.0149285 0.0  0.179773 0.0693209 0.0  0.180592 0.0937897 0.0  0.184199 0.0999882 0.0  0.189761 0.0821093 0.0  0.19651 0.0453539 0.0  0.208487 -0.0100578 0.0  0.210799 -0.0799826 0.0  0.257162 -0.176539 0.0  0.52246 -0.74173 0.0  0.313041 -0.625072 0.0  0.281195 -0.645256 0.0  0.251979 -0.568189 0.0  0.241237 -0.506895 0.0  0.237779 -0.441522 0.0  0.238737 -0.365823 0.0  0.241524 -0.278256 0.0  0.252258 -0.176364 0.0  0.252601 -0.0529679 0.0  0.304864 0.0972486 0.0
            </DataArray>
         </PointData>
      </Piece>
   </UnstructuredGrid>
</VTKFile>
