<?xml version="1.0"?>
<VTKFile type="UnstructuredGrid" version="0.1" byte_order="LittleEndian">
   <UnstructuredGrid>
      <Piece NumberOfPoints="36" NumberOfCells="0" >
         <Points>
            <DataArray type="Float64" Name="Position" NumberOfComponents="3" format="ascii">
               0  -0.01  0
               0  -0.00666667  0
               0  -0.00333333  0
               0  0  0
               0  0.00333333  0
               0  0.00666667  0
               0  0.01  0
               0.2  -0.01  0
               0.2  -0.00666667  0
               0.2  -0.00333333  0
               0.2  0  0
               0.2  0.00333333  0
               0.2  0.00666667  0
               0.2  0.01  0
               0.0166667  -0.01  0
               0.0333333  -0.01  0
               0.05  -0.01  0
               0.0666667  -0.01  0
               0.0833333  -0.01  0
               0.1  -0.01  0
               0.116667  -0.01  0
               0.133333  -0.01  0
               0.15  -0.01  0
               0.166667  -0.01  0
               0.183333  -0.01  0
               0.0166667  0.01  0
               0.0333333  0.01  0
               0.05  0.01  0
               0.0666667  0.01  0
               0.0833333  0.01  0
               0.1  0.01  0
               0.116667  0.01  0
               0.133333  0.01  0
               0.15  0.01  0
               0.166667  0.01  0
               0.183333  0.01  0
            </DataArray>
         </Points>

         <Cells>
            <DataArray type="Int32" Name="connectivity" NumberOfComponents="1" format="ascii">

            </DataArray>
            <DataArray type="Int32" Name="offsets" NumberOfComponents="1" format="ascii">

            </DataArray>
            <DataArray type="UInt8"  Name="types" NumberOfComponents="1" format="ascii">

            </DataArray>
         </Cells>
         <PointData Scalars="Rank " Vectors="Displacement Force ">
            <DataArray type="UInt32" Name="Rank" NumberOfComponents="1" format="ascii">
               0 0 0 0 0 0 0 0 0 0 0 0 0 0 0 0 0 0 0 0 0 0 0 0 0 0 0 0 0 0 0 0 0 0 0 0
            </DataArray>
            <DataArray type="Float64" Name="Displacement" NumberOfComponents="3" format="ascii">
               1.99607e-06 1.99215e-10 0.0  1.33072e-06 1.3281e-10 0.0  6.65358e-07 6.64051e-11 0.0  0 0 0.0  -6.65358e-07 -6.64051e-11 0.0  -1.33072e-06 -1.3281e-10 0.0  -1.99607e-06 -1.99215e-10 0.0  1.99209e-06 3.99217e-05 0.0  1.32673e-06 3.99216e-05 0.0  6.61373e-07 3.99215e-05 0.0  -3.98431e-09 3.99215e-05 0.0  -6.69342e-07 3.99214e-05 0.0  -1.3347e-06 3.99213e-05 0.0  -2.00006e-06 3.99213e-05 0.0  1.99574e-06 3.32699e-06 0.0  1.99541e-06 6.65378e-06 0.0  1.99508e-06 9.98056e-06 0.0  1.99474e-06 1.33074e-05 0.0  1.99441e-06 1.66341e-05 0.0  1.99408e-06 1.99609e-05 0.0  1.99375e-06 2.32877e-05 0.0  1.99342e-06 2.66145e-05 0.0  1.99308e-06 2.99413e-05 0.0  1.99275e-06 3.32681e-05 0.0  1.99242e-06 3.65949e-05 0.0  -1.9964e-06 3.32659e-06 0.0  -1.99674e-06 6.65338e-06 0.0  -1.99707e-06 9.98016e-06 0.0  -1.9974e-06 1.3307e-05 0.0  -1.99773e-06 1.66337e-05 0.0  -1.99806e-06 1.99605e-05 0.0  -1.9984e-06 2.32873e-05 0.0  -1.99873e-06 2.66141e-05 0.0  -1.99906e-06 2.99409e-05 0.0  -1.99939e-06 3.32677e-05 0.0  -1.99973e-06 3.65945e-05 0.0
            </DataArray>
            <DataArray type="Float64" Name="Force" NumberOfComponents="3" format="ascii">
               0.00430197 0.0925028 0.0  1.22801 0.0145441 0.0  1.23313 0.0216477 0.0  -0.347567 0.000327171 0.0  1.2347 -0.0296776 0.0  1.23306 -0.0329706 0.0  0.0147695 -0.153771 0.0  0.0572777 -0.0558379 0.0  0.199157 -0.0185973 0.0  0.189472 -0.0169885 0.0  -0.0502951 -1.35893e-05 0.0  0.190146 0.0172233 0.0  0.200474 0.0171741 0.0  0.0604118 0.0557762 0.0  0.473873 0.10903 0.0  0.25373 0.180244 0.0  0.22848 0.279553 0.0  0.206367 0.282552 0.0  0.204588 0.283516 0.0  0.208837 0.26744 0.0  0.21719 0.235441 0.0  0.226708 0.188201 0.0  0.244256 0.123194 0.0  0.250327 0.0332666 0.0  0.310415 -0.0859077 0.0  0.488225 -0.323751 0.0  0.266901 -0.320213 0.0  0.239437 -0.396892 0.0  0.216057 -0.375631 0.0  0.211758 -0.354899 0.0  0.214912 -0.327236 0.0  0.222803 -0.286674 0.0  0.232111 -0.231088 0.0  0.249552 -0.157995 0.0  0.255294 -0.0582283 0.0  0.315408 0.0699575 0.0
            </DataArray>
         </PointData>
      </Piece>
   </UnstructuredGrid>
</VTKFile>
