<?xml version="1.0"?>
<VTKFile type="UnstructuredGrid" version="0.1" byte_order="LittleEndian">
   <UnstructuredGrid>
      <Piece NumberOfPoints="36" NumberOfCells="0" >
         <Points>
            <DataArray type="Float64" Name="Position" NumberOfComponents="3" format="ascii">
               0  -0.01  0
               0  -0.00666667  0
               0  -0.00333333  0
               0  0  0
               0  0.00333333  0
               0  0.00666667  0
               0  0.01  0
               0.2  -0.01  0
               0.2  -0.00666667  0
               0.2  -0.00333333  0
               0.2  0  0
               0.2  0.00333333  0
               0.2  0.00666667  0
               0.2  0.01  0
               0.0166667  -0.01  0
               0.0333333  -0.01  0
               0.05  -0.01  0
               0.0666667  -0.01  0
               0.0833333  -0.01  0
               0.1  -0.01  0
               0.116667  -0.01  0
               0.133333  -0.01  0
               0.15  -0.01  0
               0.166667  -0.01  0
               0.183333  -0.01  0
               0.0166667  0.01  0
               0.0333333  0.01  0
               0.05  0.01  0
               0.0666667  0.01  0
               0.0833333  0.01  0
               0.1  0.01  0
               0.116667  0.01  0
               0.133333  0.01  0
               0.15  0.01  0
               0.166667  0.01  0
               0.183333  0.01  0
            </DataArray>
         </Points>

         <Cells>
            <DataArray type="Int32" Name="connectivity" NumberOfComponents="1" format="ascii">

            </DataArray>
            <DataArray type="Int32" Name="offsets" NumberOfComponents="1" format="ascii">

            </DataArray>
            <DataArray type="UInt8"  Name="types" NumberOfComponents="1" format="ascii">

            </DataArray>
         </Cells>
         <PointData Scalars="Rank " Vectors="Displacement Force ">
            <DataArray type="UInt32" Name="Rank" NumberOfComponents="1" format="ascii">
               0 0 0 0 0 0 0 0 0 0 0 0 0 0 0 0 0 0 0 0 0 0 0 0 0 0 0 0 0 0 0 0 0 0 0 0
            </DataArray>
            <DataArray type="Float64" Name="Displacement" NumberOfComponents="3" format="ascii">
               0.00013506 9.121e-07 0.0  9.00399e-05 6.08066e-07 0.0  4.50199e-05 3.04033e-07 0.0  0 0 0.0  -4.50199e-05 -3.04033e-07 0.0  -9.00399e-05 -6.08066e-07 0.0  -0.00013506 -9.121e-07 0.0  0.000116818 0.00270211 0.0  7.17979e-05 0.0027018 0.0  2.6778e-05 0.0027015 0.0  -1.8242e-05 0.0027012 0.0  -6.32619e-05 0.00270089 0.0  -0.000108282 0.00270059 0.0  -0.000153302 0.00270028 0.0  0.00013354 0.000226012 0.0  0.00013202 0.000451112 0.0  0.000130499 0.000676211 0.0  0.000128979 0.000901311 0.0  0.000127459 0.00112641 0.0  0.000125939 0.00135151 0.0  0.000124419 0.00157661 0.0  0.000122899 0.00180171 0.0  0.000121378 0.00202681 0.0  0.000119858 0.00225191 0.0  0.000118338 0.00247701 0.0  -0.00013658 0.000224188 0.0  -0.0001381 0.000449287 0.0  -0.00013962 0.000674387 0.0  -0.000141141 0.000899487 0.0  -0.000142661 0.00112459 0.0  -0.000144181 0.00134969 0.0  -0.000145701 0.00157479 0.0  -0.000147221 0.00179989 0.0  -0.000148741 0.00202499 0.0  -0.000150261 0.00225009 0.0  -0.000151782 0.00247518 0.0
            </DataArray>
            <DataArray type="Float64" Name="Force" NumberOfComponents="3" format="ascii">
               0.00289627 -0.00811101 0.0  1.20511 -0.00211511 0.0  1.20955 0.0178099 0.0  -0.346263 -2.66933e-05 0.0  1.24869 -0.0256237 0.0  1.24496 -0.0428701 0.0  0.0168376 -0.210118 0.0  0.0426131 -0.0693796 0.0  0.209551 -0.0103237 0.0  0.198613 -0.00872965 0.0  -0.0489937 -0.00247805 0.0  0.161772 0.0247476 0.0  0.170299 0.0245555 0.0  0.0572139 0.0828484 0.0  0.453296 -0.208218 0.0  0.227314 0.00771679 0.0  0.204679 0.214594 0.0  0.190826 0.279936 0.0  0.192123 0.31683 0.0  0.195346 0.328193 0.0  0.199493 0.305504 0.0  0.205564 0.253112 0.0  0.217153 0.175011 0.0  0.219489 0.0645397 0.0  0.267998 -0.090513 0.0  0.512794 -0.548755 0.0  0.299375 -0.461196 0.0  0.264714 -0.462591 0.0  0.235042 -0.370618 0.0  0.224041 -0.297329 0.0  0.221759 -0.227353 0.0  0.224217 -0.155591 0.0  0.228052 -0.0811035 0.0  0.240305 -0.00131681 0.0  0.242285 0.0804077 0.0  0.293979 0.170848 0.0
            </DataArray>
         </PointData>
      </Piece>
   </UnstructuredGrid>
</VTKFile>
