<?xml version="1.0"?>
<VTKFile type="UnstructuredGrid" version="0.1" byte_order="LittleEndian">
   <UnstructuredGrid>
      <Piece NumberOfPoints="36" NumberOfCells="0" >
         <Points>
            <DataArray type="Float64" Name="Position" NumberOfComponents="3" format="ascii">
               0  -0.01  0
               0  -0.00666667  0
               0  -0.00333333  0
               0  0  0
               0  0.00333333  0
               0  0.00666667  0
               0  0.01  0
               0.2  -0.01  0
               0.2  -0.00666667  0
               0.2  -0.00333333  0
               0.2  0  0
               0.2  0.00333333  0
               0.2  0.00666667  0
               0.2  0.01  0
               0.0166667  -0.01  0
               0.0333333  -0.01  0
               0.05  -0.01  0
               0.0666667  -0.01  0
               0.0833333  -0.01  0
               0.1  -0.01  0
               0.116667  -0.01  0
               0.133333  -0.01  0
               0.15  -0.01  0
               0.166667  -0.01  0
               0.183333  -0.01  0
               0.0166667  0.01  0
               0.0333333  0.01  0
               0.05  0.01  0
               0.0666667  0.01  0
               0.0833333  0.01  0
               0.1  0.01  0
               0.116667  0.01  0
               0.133333  0.01  0
               0.15  0.01  0
               0.166667  0.01  0
               0.183333  0.01  0
            </DataArray>
         </Points>

         <Cells>
            <DataArray type="Int32" Name="connectivity" NumberOfComponents="1" format="ascii">

            </DataArray>
            <DataArray type="Int32" Name="offsets" NumberOfComponents="1" format="ascii">

            </DataArray>
            <DataArray type="UInt8"  Name="types" NumberOfComponents="1" format="ascii">

            </DataArray>
         </Cells>
         <PointData Scalars="Rank " Vectors="Displacement Force ">
            <DataArray type="UInt32" Name="Rank" NumberOfComponents="1" format="ascii">
               0 0 0 0 0 0 0 0 0 0 0 0 0 0 0 0 0 0 0 0 0 0 0 0 0 0 0 0 0 0 0 0 0 0 0 0
            </DataArray>
            <DataArray type="Float64" Name="Displacement" NumberOfComponents="3" format="ascii">
               -0.00015199 1.15512e-06 0.0  -0.000101327 7.70081e-07 0.0  -5.06635e-05 3.85041e-07 0.0  0 0 0.0  5.06635e-05 -3.85041e-07 0.0  0.000101327 -7.70081e-07 0.0  0.00015199 -1.15512e-06 0.0  -0.000175093 -0.00303865 0.0  -0.000124429 -0.00303904 0.0  -7.37659e-05 -0.00303942 0.0  -2.31024e-05 -0.00303981 0.0  2.75611e-05 -0.00304019 0.0  7.82245e-05 -0.00304058 0.0  0.000128888 -0.00304096 0.0  -0.000153916 -0.000252162 0.0  -0.000155841 -0.00050548 0.0  -0.000157766 -0.000758797 0.0  -0.000159691 -0.00101211 0.0  -0.000161616 -0.00126543 0.0  -0.000163542 -0.00151875 0.0  -0.000165467 -0.00177207 0.0  -0.000167392 -0.00202538 0.0  -0.000169317 -0.0022787 0.0  -0.000171243 -0.00253202 0.0  -0.000173168 -0.00278534 0.0  0.000150065 -0.000254473 0.0  0.00014814 -0.00050779 0.0  0.000146215 -0.000761108 0.0  0.00014429 -0.00101442 0.0  0.000142364 -0.00126774 0.0  0.000140439 -0.00152106 0.0  0.000138514 -0.00177438 0.0  0.000136589 -0.00202769 0.0  0.000134664 -0.00228101 0.0  0.000132738 -0.00253433 0.0  0.000130813 -0.00278765 0.0
            </DataArray>
            <DataArray type="Float64" Name="Force" NumberOfComponents="3" format="ascii">
               0.0120212 0.203796 0.0  1.24581 0.0399414 0.0  1.24915 0.0170035 0.0  -0.347001 0.00335941 0.0  1.21358 -0.0222453 0.0  1.20846 -0.00972274 0.0  0.0100058 -0.00543503 0.0  0.0563391 -0.0715099 0.0  0.195973 -0.0210481 0.0  0.186695 -0.0185674 0.0  -0.0499668 0.000416364 0.0  0.180717 0.0143967 0.0  0.19068 0.0228047 0.0  0.0428548 0.0833255 0.0  0.495129 0.538087 0.0  0.27951 0.494598 0.0  0.252192 0.551216 0.0  0.227116 0.507692 0.0  0.219441 0.469778 0.0  0.219609 0.421701 0.0  0.223483 0.359089 0.0  0.228022 0.281191 0.0  0.240441 0.185871 0.0  0.243251 0.0662149 0.0  0.297032 -0.0815179 0.0  0.474562 0.182007 0.0  0.247129 0.0293173 0.0  0.223607 -0.11276 0.0  0.205331 -0.123043 0.0  0.200613 -0.123997 0.0  0.20156 -0.118215 0.0  0.205669 -0.0889828 0.0  0.210416 -0.0433627 0.0  0.221379 0.0196515 0.0  0.221405 0.0943282 0.0  0.266049 0.194518 0.0
            </DataArray>
         </PointData>
      </Piece>
   </UnstructuredGrid>
</VTKFile>
