<?xml version="1.0"?>
<VTKFile type="UnstructuredGrid" version="0.1" byte_order="LittleEndian">
   <UnstructuredGrid>
      <Piece NumberOfPoints="36" NumberOfCells="0" >
         <Points>
            <DataArray type="Float64" Name="Position" NumberOfComponents="3" format="ascii">
               0  -0.01  0
               0  -0.00666667  0
               0  -0.00333333  0
               0  0  0
               0  0.00333333  0
               0  0.00666667  0
               0  0.01  0
               0.2  -0.01  0
               0.2  -0.00666667  0
               0.2  -0.00333333  0
               0.2  0  0
               0.2  0.00333333  0
               0.2  0.00666667  0
               0.2  0.01  0
               0.0166667  -0.01  0
               0.0333333  -0.01  0
               0.05  -0.01  0
               0.0666667  -0.01  0
               0.0833333  -0.01  0
               0.1  -0.01  0
               0.116667  -0.01  0
               0.133333  -0.01  0
               0.15  -0.01  0
               0.166667  -0.01  0
               0.183333  -0.01  0
               0.0166667  0.01  0
               0.0333333  0.01  0
               0.05  0.01  0
               0.0666667  0.01  0
               0.0833333  0.01  0
               0.1  0.01  0
               0.116667  0.01  0
               0.133333  0.01  0
               0.15  0.01  0
               0.166667  0.01  0
               0.183333  0.01  0
            </DataArray>
         </Points>

         <Cells>
            <DataArray type="Int32" Name="connectivity" NumberOfComponents="1" format="ascii">

            </DataArray>
            <DataArray type="Int32" Name="offsets" NumberOfComponents="1" format="ascii">

            </DataArray>
            <DataArray type="UInt8"  Name="types" NumberOfComponents="1" format="ascii">

            </DataArray>
         </Cells>
         <PointData Scalars="Rank " Vectors="Displacement Force ">
            <DataArray type="UInt32" Name="Rank" NumberOfComponents="1" format="ascii">
               0 0 0 0 0 0 0 0 0 0 0 0 0 0 0 0 0 0 0 0 0 0 0 0 0 0 0 0 0 0 0 0 0 0 0 0
            </DataArray>
            <DataArray type="Float64" Name="Displacement" NumberOfComponents="3" format="ascii">
               -1.58258e-05 1.25228e-08 0.0  -1.05505e-05 8.34853e-09 0.0  -5.27526e-06 4.17426e-09 0.0  0 0 0.0  5.27526e-06 -4.17426e-09 0.0  1.05505e-05 -8.34853e-09 0.0  1.58258e-05 -1.25228e-08 0.0  -1.60762e-05 -0.000316503 0.0  -1.0801e-05 -0.000316507 0.0  -5.52572e-06 -0.000316512 0.0  -2.50456e-07 -0.000316516 0.0  5.02481e-06 -0.00031652 0.0  1.03001e-05 -0.000316524 0.0  1.55753e-05 -0.000316528 0.0  -1.58467e-05 -2.63638e-05 0.0  -1.58675e-05 -5.27401e-05 0.0  -1.58884e-05 -7.91164e-05 0.0  -1.59093e-05 -0.000105493 0.0  -1.59301e-05 -0.000131869 0.0  -1.5951e-05 -0.000158245 0.0  -1.59719e-05 -0.000184622 0.0  -1.59928e-05 -0.000210998 0.0  -1.60136e-05 -0.000237374 0.0  -1.60345e-05 -0.000263751 0.0  -1.60554e-05 -0.000290127 0.0  1.58049e-05 -2.63888e-05 0.0  1.5784e-05 -5.27652e-05 0.0  1.57632e-05 -7.91415e-05 0.0  1.57423e-05 -0.000105518 0.0  1.57214e-05 -0.000131894 0.0  1.57006e-05 -0.00015827 0.0  1.56797e-05 -0.000184647 0.0  1.56588e-05 -0.000211023 0.0  1.56379e-05 -0.000237399 0.0  1.56171e-05 -0.000263776 0.0  1.55962e-05 -0.000290152 0.0
            </DataArray>
            <DataArray type="Float64" Name="Force" NumberOfComponents="3" format="ascii">
               0.0107982 0.0585557 0.0  1.21838 0.00682902 0.0  1.22997 0.0164193 0.0  -0.351945 -1.87835e-05 0.0  1.24396 -0.0311194 0.0  1.23267 -0.040519 0.0  0.0127085 -0.167674 0.0  0.0420936 -0.0771825 0.0  0.160004 -0.0102548 0.0  0.151568 -0.00878987 0.0  -0.0470177 -0.00239123 0.0  0.193763 0.0235172 0.0  0.202524 0.0250972 0.0  0.0591438 0.0783939 0.0  0.47878 -0.00714778 0.0  0.259064 0.0777101 0.0  0.231696 0.175788 0.0  0.208958 0.186451 0.0  0.205187 0.191066 0.0  0.204859 0.17138 0.0  0.206784 0.133382 0.0  0.209256 0.0821655 0.0  0.217096 0.0173847 0.0  0.215335 -0.0585227 0.0  0.257236 -0.154802 0.0  0.487019 -0.391857 0.0  0.26385 -0.372552 0.0  0.234334 -0.447138 0.0  0.212334 -0.432578 0.0  0.208529 -0.412728 0.0  0.211722 -0.377968 0.0  0.218213 -0.322668 0.0  0.225945 -0.248684 0.0  0.241091 -0.154913 0.0  0.246439 -0.0365252 0.0  0.302844 0.11644 0.0
            </DataArray>
         </PointData>
      </Piece>
   </UnstructuredGrid>
</VTKFile>
