<?xml version="1.0"?>
<VTKFile type="UnstructuredGrid" version="0.1" byte_order="LittleEndian">
   <UnstructuredGrid>
      <Piece NumberOfPoints="36" NumberOfCells="0" >
         <Points>
            <DataArray type="Float64" Name="Position" NumberOfComponents="3" format="ascii">
               0  -0.01  0
               0  -0.00666667  0
               0  -0.00333333  0
               0  0  0
               0  0.00333333  0
               0  0.00666667  0
               0  0.01  0
               0.2  -0.01  0
               0.2  -0.00666667  0
               0.2  -0.00333333  0
               0.2  0  0
               0.2  0.00333333  0
               0.2  0.00666667  0
               0.2  0.01  0
               0.0166667  -0.01  0
               0.0333333  -0.01  0
               0.05  -0.01  0
               0.0666667  -0.01  0
               0.0833333  -0.01  0
               0.1  -0.01  0
               0.116667  -0.01  0
               0.133333  -0.01  0
               0.15  -0.01  0
               0.166667  -0.01  0
               0.183333  -0.01  0
               0.0166667  0.01  0
               0.0333333  0.01  0
               0.05  0.01  0
               0.0666667  0.01  0
               0.0833333  0.01  0
               0.1  0.01  0
               0.116667  0.01  0
               0.133333  0.01  0
               0.15  0.01  0
               0.166667  0.01  0
               0.183333  0.01  0
            </DataArray>
         </Points>

         <Cells>
            <DataArray type="Int32" Name="connectivity" NumberOfComponents="1" format="ascii">

            </DataArray>
            <DataArray type="Int32" Name="offsets" NumberOfComponents="1" format="ascii">

            </DataArray>
            <DataArray type="UInt8"  Name="types" NumberOfComponents="1" format="ascii">

            </DataArray>
         </Cells>
         <PointData Scalars="Rank " Vectors="Displacement Force ">
            <DataArray type="UInt32" Name="Rank" NumberOfComponents="1" format="ascii">
               0 0 0 0 0 0 0 0 0 0 0 0 0 0 0 0 0 0 0 0 0 0 0 0 0 0 0 0 0 0 0 0 0 0 0 0
            </DataArray>
            <DataArray type="Float64" Name="Displacement" NumberOfComponents="3" format="ascii">
               -6.16403e-05 1.89978e-07 0.0  -4.10935e-05 1.26652e-07 0.0  -2.05468e-05 6.3326e-08 0.0  0 0 0.0  2.05468e-05 -6.3326e-08 0.0  4.10935e-05 -1.26652e-07 0.0  6.16403e-05 -1.89978e-07 0.0  -6.54398e-05 -0.00123262 0.0  -4.48931e-05 -0.00123268 0.0  -2.43463e-05 -0.00123274 0.0  -3.79956e-06 -0.00123281 0.0  1.67472e-05 -0.00123287 0.0  3.7294e-05 -0.00123293 0.0  5.78407e-05 -0.001233 0.0  -6.19569e-05 -0.000102544 0.0  -6.22735e-05 -0.000205278 0.0  -6.25902e-05 -0.000308011 0.0  -6.29068e-05 -0.000410745 0.0  -6.32234e-05 -0.000513479 0.0  -6.354e-05 -0.000616213 0.0  -6.38567e-05 -0.000718946 0.0  -6.41733e-05 -0.00082168 0.0  -6.44899e-05 -0.000924414 0.0  -6.48066e-05 -0.00102715 0.0  -6.51232e-05 -0.00112988 0.0  6.13236e-05 -0.000102924 0.0  6.1007e-05 -0.000205658 0.0  6.06904e-05 -0.000308391 0.0  6.03737e-05 -0.000411125 0.0  6.00571e-05 -0.000513859 0.0  5.97405e-05 -0.000616593 0.0  5.94239e-05 -0.000719326 0.0  5.91072e-05 -0.00082206 0.0  5.87906e-05 -0.000924794 0.0  5.8474e-05 -0.00102753 0.0  5.81573e-05 -0.00113026 0.0
            </DataArray>
            <DataArray type="Float64" Name="Force" NumberOfComponents="3" format="ascii">
               0.0120387 0.0957985 0.0  1.2271 0.0111064 0.0  1.23857 0.0175419 0.0  -0.35269 0.00187866 0.0  1.24045 -0.0327433 0.0  1.22896 -0.0358826 0.0  0.0119682 -0.139339 0.0  0.0469454 -0.0785826 0.0  0.157552 -0.0140387 0.0  0.149539 -0.0131461 0.0  -0.0472539 -0.000992952 0.0  0.197462 0.0193303 0.0  0.206572 0.0194126 0.0  0.0538927 0.0753363 0.0  0.484523 0.113691 0.0  0.262367 0.142816 0.0  0.233216 0.219769 0.0  0.21323 0.215064 0.0  0.206984 0.192058 0.0  0.207001 0.159004 0.0  0.209648 0.113167 0.0  0.212822 0.0574454 0.0  0.221921 -0.00840683 0.0  0.221782 -0.0799564 0.0  0.266885 -0.166547 0.0  0.484011 -0.287044 0.0  0.260812 -0.315641 0.0  0.232708 -0.41242 0.0  0.208822 -0.409487 0.0  0.205904 -0.411946 0.0  0.208014 -0.390224 0.0  0.214077 -0.343686 0.0  0.221121 -0.275083 0.0  0.234867 -0.182612 0.0  0.238736 -0.0603081 0.0  0.29246 0.0999399 0.0
            </DataArray>
         </PointData>
      </Piece>
   </UnstructuredGrid>
</VTKFile>
