<?xml version="1.0"?>
<VTKFile type="UnstructuredGrid" version="0.1" byte_order="LittleEndian">
   <UnstructuredGrid>
      <Piece NumberOfPoints="36" NumberOfCells="0" >
         <Points>
            <DataArray type="Float64" Name="Position" NumberOfComponents="3" format="ascii">
               0  -0.01  0
               0  -0.00666667  0
               0  -0.00333333  0
               0  0  0
               0  0.00333333  0
               0  0.00666667  0
               0  0.01  0
               0.2  -0.01  0
               0.2  -0.00666667  0
               0.2  -0.00333333  0
               0.2  0  0
               0.2  0.00333333  0
               0.2  0.00666667  0
               0.2  0.01  0
               0.0166667  -0.01  0
               0.0333333  -0.01  0
               0.05  -0.01  0
               0.0666667  -0.01  0
               0.0833333  -0.01  0
               0.1  -0.01  0
               0.116667  -0.01  0
               0.133333  -0.01  0
               0.15  -0.01  0
               0.166667  -0.01  0
               0.183333  -0.01  0
               0.0166667  0.01  0
               0.0333333  0.01  0
               0.05  0.01  0
               0.0666667  0.01  0
               0.0833333  0.01  0
               0.1  0.01  0
               0.116667  0.01  0
               0.133333  0.01  0
               0.15  0.01  0
               0.166667  0.01  0
               0.183333  0.01  0
            </DataArray>
         </Points>

         <Cells>
            <DataArray type="Int32" Name="connectivity" NumberOfComponents="1" format="ascii">

            </DataArray>
            <DataArray type="Int32" Name="offsets" NumberOfComponents="1" format="ascii">

            </DataArray>
            <DataArray type="UInt8"  Name="types" NumberOfComponents="1" format="ascii">

            </DataArray>
         </Cells>
         <PointData Scalars="Rank " Vectors="Displacement Force ">
            <DataArray type="UInt32" Name="Rank" NumberOfComponents="1" format="ascii">
               0 0 0 0 0 0 0 0 0 0 0 0 0 0 0 0 0 0 0 0 0 0 0 0 0 0 0 0 0 0 0 0 0 0 0 0
            </DataArray>
            <DataArray type="Float64" Name="Displacement" NumberOfComponents="3" format="ascii">
               6.02447e-05 1.81473e-07 0.0  4.01631e-05 1.20982e-07 0.0  2.00816e-05 6.04909e-08 0.0  0 0 0.0  -2.00816e-05 -6.04909e-08 0.0  -4.01631e-05 -1.20982e-07 0.0  -6.02447e-05 -1.81473e-07 0.0  5.66152e-05 0.00120507 0.0  3.65337e-05 0.00120501 0.0  1.64521e-05 0.00120495 0.0  -3.62945e-06 0.00120489 0.0  -2.3711e-05 0.00120483 0.0  -4.37926e-05 0.00120477 0.0  -6.38741e-05 0.00120471 0.0  5.99422e-05 0.000100589 0.0  5.96397e-05 0.000200997 0.0  5.93373e-05 0.000301405 0.0  5.90348e-05 0.000401813 0.0  5.87324e-05 0.00050222 0.0  5.84299e-05 0.000602628 0.0  5.81275e-05 0.000703036 0.0  5.7825e-05 0.000803444 0.0  5.75226e-05 0.000903851 0.0  5.72201e-05 0.00100426 0.0  5.69177e-05 0.00110467 0.0  -6.05471e-05 0.000100226 0.0  -6.08496e-05 0.000200634 0.0  -6.1152e-05 0.000301042 0.0  -6.14545e-05 0.00040145 0.0  -6.17569e-05 0.000501857 0.0  -6.20594e-05 0.000602265 0.0  -6.23618e-05 0.000702673 0.0  -6.26643e-05 0.000803081 0.0  -6.29667e-05 0.000903488 0.0  -6.32692e-05 0.0010039 0.0  -6.35717e-05 0.0011043 0.0
            </DataArray>
            <DataArray type="Float64" Name="Force" NumberOfComponents="3" format="ascii">
               0.00483504 0.0521695 0.0  1.21449 0.00901018 0.0  1.22479 0.0202351 0.0  -0.350667 0.000310397 0.0  1.2442 -0.0278903 0.0  1.23411 -0.0358563 0.0  0.0176907 -0.166978 0.0  0.047654 -0.0711917 0.0  0.191647 -0.0166726 0.0  0.183169 -0.0162323 0.0  -0.0502338 -0.000754272 0.0  0.185293 0.0215423 0.0  0.193613 0.0219959 0.0  0.0506637 0.086438 0.0  0.455643 -0.00951896 0.0  0.228328 0.121004 0.0  0.205871 0.261955 0.0  0.188364 0.27846 0.0  0.187534 0.281613 0.0  0.191475 0.268576 0.0  0.197745 0.232417 0.0  0.204452 0.176934 0.0  0.217874 0.102953 0.0  0.222386 0.0074743 0.0  0.274049 -0.11547 0.0  0.506039 -0.379138 0.0  0.289767 -0.348345 0.0  0.262042 -0.400449 0.0  0.236813 -0.357438 0.0  0.228794 -0.316879 0.0  0.226324 -0.268529 0.0  0.227126 -0.208777 0.0  0.229694 -0.138251 0.0  0.239079 -0.0542396 0.0  0.237877 0.0428029 0.0  0.284532 0.164756 0.0
            </DataArray>
         </PointData>
      </Piece>
   </UnstructuredGrid>
</VTKFile>
