<?xml version="1.0"?>
<VTKFile type="UnstructuredGrid" version="0.1" byte_order="LittleEndian">
   <UnstructuredGrid>
      <Piece NumberOfPoints="36" NumberOfCells="0" >
         <Points>
            <DataArray type="Float64" Name="Position" NumberOfComponents="3" format="ascii">
               0  -0.01  0
               0  -0.00666667  0
               0  -0.00333333  0
               0  0  0
               0  0.00333333  0
               0  0.00666667  0
               0  0.01  0
               0.2  -0.01  0
               0.2  -0.00666667  0
               0.2  -0.00333333  0
               0.2  0  0
               0.2  0.00333333  0
               0.2  0.00666667  0
               0.2  0.01  0
               0.0166667  -0.01  0
               0.0333333  -0.01  0
               0.05  -0.01  0
               0.0666667  -0.01  0
               0.0833333  -0.01  0
               0.1  -0.01  0
               0.116667  -0.01  0
               0.133333  -0.01  0
               0.15  -0.01  0
               0.166667  -0.01  0
               0.183333  -0.01  0
               0.0166667  0.01  0
               0.0333333  0.01  0
               0.05  0.01  0
               0.0666667  0.01  0
               0.0833333  0.01  0
               0.1  0.01  0
               0.116667  0.01  0
               0.133333  0.01  0
               0.15  0.01  0
               0.166667  0.01  0
               0.183333  0.01  0
            </DataArray>
         </Points>

         <Cells>
            <DataArray type="Int32" Name="connectivity" NumberOfComponents="1" format="ascii">

            </DataArray>
            <DataArray type="Int32" Name="offsets" NumberOfComponents="1" format="ascii">

            </DataArray>
            <DataArray type="UInt8"  Name="types" NumberOfComponents="1" format="ascii">

            </DataArray>
         </Cells>
         <PointData Scalars="Rank " Vectors="Displacement Force ">
            <DataArray type="UInt32" Name="Rank" NumberOfComponents="1" format="ascii">
               0 0 0 0 0 0 0 0 0 0 0 0 0 0 0 0 0 0 0 0 0 0 0 0 0 0 0 0 0 0 0 0 0 0 0 0
            </DataArray>
            <DataArray type="Float64" Name="Displacement" NumberOfComponents="3" format="ascii">
               0.000111388 6.20381e-07 0.0  7.42585e-05 4.13587e-07 0.0  3.71293e-05 2.06794e-07 0.0  0 0 0.0  -3.71293e-05 -2.06794e-07 0.0  -7.42585e-05 -4.13587e-07 0.0  -0.000111388 -6.20381e-07 0.0  9.89802e-05 0.00222838 0.0  6.18509e-05 0.00222817 0.0  2.47216e-05 0.00222796 0.0  -1.24076e-05 0.00222776 0.0  -4.95369e-05 0.00222755 0.0  -8.66662e-05 0.00222734 0.0  -0.000123795 0.00222714 0.0  0.000110354 0.000186267 0.0  0.00010932 0.000371913 0.0  0.000108286 0.000557559 0.0  0.000107252 0.000743206 0.0  0.000106218 0.000928852 0.0  0.000105184 0.0011145 0.0  0.00010415 0.00130014 0.0  0.000103116 0.00148579 0.0  0.000102082 0.00167144 0.0  0.000101048 0.00185708 0.0  0.000100014 0.00204273 0.0  -0.000112422 0.000185026 0.0  -0.000113456 0.000370672 0.0  -0.00011449 0.000556319 0.0  -0.000115524 0.000741965 0.0  -0.000116558 0.000927611 0.0  -0.000117592 0.00111326 0.0  -0.000118626 0.0012989 0.0  -0.00011966 0.00148455 0.0  -0.000120694 0.0016702 0.0  -0.000121727 0.00185584 0.0  -0.000122761 0.00204149 0.0
            </DataArray>
            <DataArray type="Float64" Name="Force" NumberOfComponents="3" format="ascii">
               0.00383641 0.00317362 0.0  1.20436 -0.000930621 0.0  1.21628 0.0174961 0.0  -0.351342 0.000291124 0.0  1.25189 -0.0272472 0.0  1.24005 -0.0429018 0.0  0.0182383 -0.202874 0.0  0.0453439 -0.0720141 0.0  0.187296 -0.0166246 0.0  0.178885 -0.0147542 0.0  -0.0497521 -0.0010885 0.0  0.185423 0.0227333 0.0  0.193409 0.0220788 0.0  0.0534246 0.0850173 0.0  0.447595 -0.173021 0.0  0.219477 0.00979742 0.0  0.197352 0.173113 0.0  0.182021 0.206516 0.0  0.182035 0.21892 0.0  0.186235 0.214113 0.0  0.192547 0.185434 0.0  0.199646 0.137277 0.0  0.212817 0.0697657 0.0  0.217196 -0.0173857 0.0  0.267544 -0.131673 0.0  0.513896 -0.520344 0.0  0.301267 -0.453115 0.0  0.272214 -0.489367 0.0  0.24479 -0.429741 0.0  0.235507 -0.379006 0.0  0.232087 -0.322516 0.0  0.232403 -0.255879 0.0  0.234711 -0.178651 0.0  0.244066 -0.0883912 0.0  0.242955 0.0164805 0.0  0.291186 0.146602 0.0
            </DataArray>
         </PointData>
      </Piece>
   </UnstructuredGrid>
</VTKFile>
