<?xml version="1.0"?>
<VTKFile type="UnstructuredGrid" version="0.1" byte_order="LittleEndian">
   <UnstructuredGrid>
      <Piece NumberOfPoints="36" NumberOfCells="0" >
         <Points>
            <DataArray type="Float64" Name="Position" NumberOfComponents="3" format="ascii">
               0  -0.01  0
               0  -0.00666667  0
               0  -0.00333333  0
               0  0  0
               0  0.00333333  0
               0  0.00666667  0
               0  0.01  0
               0.2  -0.01  0
               0.2  -0.00666667  0
               0.2  -0.00333333  0
               0.2  0  0
               0.2  0.00333333  0
               0.2  0.00666667  0
               0.2  0.01  0
               0.0166667  -0.01  0
               0.0333333  -0.01  0
               0.05  -0.01  0
               0.0666667  -0.01  0
               0.0833333  -0.01  0
               0.1  -0.01  0
               0.116667  -0.01  0
               0.133333  -0.01  0
               0.15  -0.01  0
               0.166667  -0.01  0
               0.183333  -0.01  0
               0.0166667  0.01  0
               0.0333333  0.01  0
               0.05  0.01  0
               0.0666667  0.01  0
               0.0833333  0.01  0
               0.1  0.01  0
               0.116667  0.01  0
               0.133333  0.01  0
               0.15  0.01  0
               0.166667  0.01  0
               0.183333  0.01  0
            </DataArray>
         </Points>

         <Cells>
            <DataArray type="Int32" Name="connectivity" NumberOfComponents="1" format="ascii">

            </DataArray>
            <DataArray type="Int32" Name="offsets" NumberOfComponents="1" format="ascii">

            </DataArray>
            <DataArray type="UInt8"  Name="types" NumberOfComponents="1" format="ascii">

            </DataArray>
         </Cells>
         <PointData Scalars="Rank " Vectors="Displacement Force ">
            <DataArray type="UInt32" Name="Rank" NumberOfComponents="1" format="ascii">
               0 0 0 0 0 0 0 0 0 0 0 0 0 0 0 0 0 0 0 0 0 0 0 0 0 0 0 0 0 0 0 0 0 0 0 0
            </DataArray>
            <DataArray type="Float64" Name="Displacement" NumberOfComponents="3" format="ascii">
               -6.26898e-06 1.96501e-09 0.0  -4.17932e-06 1.31e-09 0.0  -2.08966e-06 6.55002e-10 0.0  0 0 0.0  2.08966e-06 -6.55002e-10 0.0  4.17932e-06 -1.31e-09 0.0  6.26898e-06 -1.96501e-09 0.0  -6.30828e-06 -0.000125378 0.0  -4.21862e-06 -0.000125378 0.0  -2.12896e-06 -0.000125379 0.0  -3.93001e-08 -0.00012538 0.0  2.05036e-06 -0.00012538 0.0  4.14002e-06 -0.000125381 0.0  6.22968e-06 -0.000125382 0.0  -6.27226e-06 -1.04463e-05 0.0  -6.27553e-06 -2.08946e-05 0.0  -6.27881e-06 -3.13429e-05 0.0  -6.28208e-06 -4.17912e-05 0.0  -6.28536e-06 -5.22396e-05 0.0  -6.28863e-06 -6.26879e-05 0.0  -6.29191e-06 -7.31362e-05 0.0  -6.29518e-06 -8.35845e-05 0.0  -6.29846e-06 -9.40328e-05 0.0  -6.30173e-06 -0.000104481 0.0  -6.30501e-06 -0.000114929 0.0  6.26571e-06 -1.04503e-05 0.0  6.26243e-06 -2.08986e-05 0.0  6.25916e-06 -3.13469e-05 0.0  6.25588e-06 -4.17952e-05 0.0  6.25261e-06 -5.22435e-05 0.0  6.24933e-06 -6.26918e-05 0.0  6.24606e-06 -7.31401e-05 0.0  6.24278e-06 -8.35884e-05 0.0  6.23951e-06 -9.40367e-05 0.0  6.23623e-06 -0.000104485 0.0  6.23296e-06 -0.000114933 0.0
            </DataArray>
            <DataArray type="Float64" Name="Force" NumberOfComponents="3" format="ascii">
               0.00967477 0.0719313 0.0  1.21984 0.0107252 0.0  1.23115 0.0187856 0.0  -0.351805 -8.17225e-05 0.0  1.24228 -0.0302052 0.0  1.23107 -0.0362063 0.0  0.0141324 -0.155414 0.0  0.0465125 -0.0772943 0.0  0.174426 -0.0165747 0.0  0.166084 -0.0151658 0.0  -0.0480343 -0.00101822 0.0  0.186546 0.0211473 0.0  0.195247 0.0215056 0.0  0.0541545 0.0773543 0.0  0.474308 0.0433656 0.0  0.252354 0.128985 0.0  0.229361 0.237779 0.0  0.205992 0.234722 0.0  0.202109 0.233262 0.0  0.203541 0.213635 0.0  0.207521 0.173777 0.0  0.21171 0.118241 0.0  0.222037 0.0467847 0.0  0.222913 -0.0391644 0.0  0.26972 -0.149046 0.0  0.491434 -0.340946 0.0  0.268281 -0.32851 0.0  0.2381 -0.400595 0.0  0.216729 -0.38571 0.0  0.211687 -0.363836 0.0  0.213052 -0.328961 0.0  0.217528 -0.276543 0.0  0.223548 -0.207506 0.0  0.236352 -0.120504 0.0  0.238846 -0.0125954 0.0  0.290527 0.123425 0.0
            </DataArray>
         </PointData>
      </Piece>
   </UnstructuredGrid>
</VTKFile>
