<?xml version="1.0"?>
<VTKFile type="UnstructuredGrid" version="0.1" byte_order="LittleEndian">
   <UnstructuredGrid>
      <Piece NumberOfPoints="36" NumberOfCells="0" >
         <Points>
            <DataArray type="Float64" Name="Position" NumberOfComponents="3" format="ascii">
               0  -0.01  0
               0  -0.00666667  0
               0  -0.00333333  0
               0  0  0
               0  0.00333333  0
               0  0.00666667  0
               0  0.01  0
               0.2  -0.01  0
               0.2  -0.00666667  0
               0.2  -0.00333333  0
               0.2  0  0
               0.2  0.00333333  0
               0.2  0.00666667  0
               0.2  0.01  0
               0.0166667  -0.01  0
               0.0333333  -0.01  0
               0.05  -0.01  0
               0.0666667  -0.01  0
               0.0833333  -0.01  0
               0.1  -0.01  0
               0.116667  -0.01  0
               0.133333  -0.01  0
               0.15  -0.01  0
               0.166667  -0.01  0
               0.183333  -0.01  0
               0.0166667  0.01  0
               0.0333333  0.01  0
               0.05  0.01  0
               0.0666667  0.01  0
               0.0833333  0.01  0
               0.1  0.01  0
               0.116667  0.01  0
               0.133333  0.01  0
               0.15  0.01  0
               0.166667  0.01  0
               0.183333  0.01  0
            </DataArray>
         </Points>

         <Cells>
            <DataArray type="Int32" Name="connectivity" NumberOfComponents="1" format="ascii">

            </DataArray>
            <DataArray type="Int32" Name="offsets" NumberOfComponents="1" format="ascii">

            </DataArray>
            <DataArray type="UInt8"  Name="types" NumberOfComponents="1" format="ascii">

            </DataArray>
         </Cells>
         <PointData Scalars="Rank " Vectors="Displacement Force ">
            <DataArray type="UInt32" Name="Rank" NumberOfComponents="1" format="ascii">
               0 0 0 0 0 0 0 0 0 0 0 0 0 0 0 0 0 0 0 0 0 0 0 0 0 0 0 0 0 0 0 0 0 0 0 0
            </DataArray>
            <DataArray type="Float64" Name="Displacement" NumberOfComponents="3" format="ascii">
               2.27981e-06 2.59876e-10 0.0  1.51987e-06 1.73251e-10 0.0  7.59936e-07 8.66254e-11 0.0  0 0 0.0  -7.59936e-07 -8.66254e-11 0.0  -1.51987e-06 -1.73251e-10 0.0  -2.27981e-06 -2.59876e-10 0.0  2.27461e-06 4.55964e-05 0.0  1.51467e-06 4.55963e-05 0.0  7.54739e-07 4.55963e-05 0.0  -5.19753e-09 4.55962e-05 0.0  -7.65134e-07 4.55961e-05 0.0  -1.52507e-06 4.5596e-05 0.0  -2.28501e-06 4.55959e-05 0.0  2.27938e-06 3.79994e-06 0.0  2.27894e-06 7.59962e-06 0.0  2.27851e-06 1.13993e-05 0.0  2.27808e-06 1.5199e-05 0.0  2.27764e-06 1.89987e-05 0.0  2.27721e-06 2.27983e-05 0.0  2.27678e-06 2.6598e-05 0.0  2.27634e-06 3.03977e-05 0.0  2.27591e-06 3.41974e-05 0.0  2.27548e-06 3.79971e-05 0.0  2.27504e-06 4.17967e-05 0.0  -2.28024e-06 3.79942e-06 0.0  -2.28067e-06 7.5991e-06 0.0  -2.28111e-06 1.13988e-05 0.0  -2.28154e-06 1.51985e-05 0.0  -2.28197e-06 1.89981e-05 0.0  -2.28241e-06 2.27978e-05 0.0  -2.28284e-06 2.65975e-05 0.0  -2.28327e-06 3.03972e-05 0.0  -2.28371e-06 3.41969e-05 0.0  -2.28414e-06 3.79965e-05 0.0  -2.28457e-06 4.17962e-05 0.0
            </DataArray>
            <DataArray type="Float64" Name="Force" NumberOfComponents="3" format="ascii">
               0.00428029 0.0807571 0.0  1.22642 0.0125443 0.0  1.23145 0.0201309 0.0  -0.347133 0.000607988 0.0  1.23373 -0.0297912 0.0  1.23212 -0.0337935 0.0  0.0170893 -0.148247 0.0  0.0492257 -0.0769807 0.0  0.191554 -0.0198683 0.0  0.18266 -0.0186584 0.0  -0.0483837 2.03178e-05 0.0  0.183237 0.0185734 0.0  0.191689 0.0181271 0.0  0.0506143 0.0780116 0.0  0.470772 0.0756788 0.0  0.246251 0.163408 0.0  0.223947 0.27807 0.0  0.203183 0.271176 0.0  0.200244 0.267649 0.0  0.20252 0.248067 0.0  0.207797 0.206831 0.0  0.21325 0.148332 0.0  0.225625 0.072446 0.0  0.227755 -0.0211027 0.0  0.27754 -0.141516 0.0  0.494156 -0.310981 0.0  0.271841 -0.301542 0.0  0.243281 -0.375826 0.0  0.221284 -0.358499 0.0  0.215056 -0.333445 0.0  0.215011 -0.296379 0.0  0.218272 -0.24367 0.0  0.222108 -0.176536 0.0  0.233202 -0.0937848 0.0  0.233867 0.00665113 0.0  0.28272 0.131828 0.0
            </DataArray>
         </PointData>
      </Piece>
   </UnstructuredGrid>
</VTKFile>
