<?xml version="1.0"?>
<VTKFile type="UnstructuredGrid" version="0.1" byte_order="LittleEndian">
   <UnstructuredGrid>
      <Piece NumberOfPoints="36" NumberOfCells="0" >
         <Points>
            <DataArray type="Float64" Name="Position" NumberOfComponents="3" format="ascii">
               0  -0.01  0
               0  -0.00666667  0
               0  -0.00333333  0
               0  0  0
               0  0.00333333  0
               0  0.00666667  0
               0  0.01  0
               0.2  -0.01  0
               0.2  -0.00666667  0
               0.2  -0.00333333  0
               0.2  0  0
               0.2  0.00333333  0
               0.2  0.00666667  0
               0.2  0.01  0
               0.0166667  -0.01  0
               0.0333333  -0.01  0
               0.05  -0.01  0
               0.0666667  -0.01  0
               0.0833333  -0.01  0
               0.1  -0.01  0
               0.116667  -0.01  0
               0.133333  -0.01  0
               0.15  -0.01  0
               0.166667  -0.01  0
               0.183333  -0.01  0
               0.0166667  0.01  0
               0.0333333  0.01  0
               0.05  0.01  0
               0.0666667  0.01  0
               0.0833333  0.01  0
               0.1  0.01  0
               0.116667  0.01  0
               0.133333  0.01  0
               0.15  0.01  0
               0.166667  0.01  0
               0.183333  0.01  0
            </DataArray>
         </Points>

         <Cells>
            <DataArray type="Int32" Name="connectivity" NumberOfComponents="1" format="ascii">

            </DataArray>
            <DataArray type="Int32" Name="offsets" NumberOfComponents="1" format="ascii">

            </DataArray>
            <DataArray type="UInt8"  Name="types" NumberOfComponents="1" format="ascii">

            </DataArray>
         </Cells>
         <PointData Scalars="Rank " Vectors="Displacement Force ">
            <DataArray type="UInt32" Name="Rank" NumberOfComponents="1" format="ascii">
               0 0 0 0 0 0 0 0 0 0 0 0 0 0 0 0 0 0 0 0 0 0 0 0 0 0 0 0 0 0 0 0 0 0 0 0
            </DataArray>
            <DataArray type="Float64" Name="Displacement" NumberOfComponents="3" format="ascii">
               0.000149508 1.11769e-06 0.0  9.9672e-05 7.4513e-07 0.0  4.9836e-05 3.72565e-07 0.0  0 0 0.0  -4.9836e-05 -3.72565e-07 0.0  -9.9672e-05 -7.4513e-07 0.0  -0.000149508 -1.11769e-06 0.0  0.000127154 0.00299128 0.0  7.73181e-05 0.0029909 0.0  2.74821e-05 0.00299053 0.0  -2.23539e-05 0.00299016 0.0  -7.21899e-05 0.00298979 0.0  -0.000122026 0.00298941 0.0  -0.000171862 0.00298904 0.0  0.000147645 0.000250298 0.0  0.000145782 0.000499478 0.0  0.00014392 0.000748658 0.0  0.000142057 0.000997838 0.0  0.000140194 0.00124702 0.0  0.000138331 0.0014962 0.0  0.000136468 0.00174538 0.0  0.000134605 0.00199456 0.0  0.000132743 0.00224374 0.0  0.00013088 0.00249292 0.0  0.000129017 0.0027421 0.0  -0.000151371 0.000248062 0.0  -0.000153234 0.000497242 0.0  -0.000155096 0.000746422 0.0  -0.000156959 0.000995602 0.0  -0.000158822 0.00124478 0.0  -0.000160685 0.00149396 0.0  -0.000162548 0.00174314 0.0  -0.000164411 0.00199232 0.0  -0.000166273 0.0022415 0.0  -0.000168136 0.00249068 0.0  -0.000169999 0.00273986 0.0
            </DataArray>
            <DataArray type="Float64" Name="Force" NumberOfComponents="3" format="ascii">
               0.00446724 -0.06103 0.0  1.19192 -0.0131068 0.0  1.20197 0.0114813 0.0  -0.348735 -0.00276088 0.0  1.25479 -0.0218771 0.0  1.24558 -0.0567822 0.0  0.0177302 -0.246677 0.0  0.0410151 -0.0796223 0.0  0.181851 -0.0210504 0.0  0.172814 -0.0122429 0.0  -0.0493997 -0.000693684 0.0  0.189354 0.020489 0.0  0.197688 0.0237412 0.0  0.0587754 0.0779045 0.0  0.44828 -0.392475 0.0  0.220405 -0.1564 0.0  0.198433 0.0252472 0.0  0.184246 0.0736039 0.0  0.184556 0.093799 0.0  0.188026 0.0966045 0.0  0.193258 0.0760862 0.0  0.199254 0.0374051 0.0  0.210656 -0.0197558 0.0  0.212295 -0.0899385 0.0  0.257991 -0.186588 0.0  0.516895 -0.702945 0.0  0.305856 -0.599399 0.0  0.274916 -0.626834 0.0  0.246399 -0.556371 0.0  0.236414 -0.499784 0.0  0.233819 -0.437926 0.0  0.235513 -0.364836 0.0  0.23893 -0.278873 0.0  0.25023 -0.177643 0.0  0.25144 -0.0541742 0.0  0.304013 0.0969631 0.0
            </DataArray>
         </PointData>
      </Piece>
   </UnstructuredGrid>
</VTKFile>
