<?xml version="1.0"?>
<VTKFile type="UnstructuredGrid" version="0.1" byte_order="LittleEndian">
   <UnstructuredGrid>
      <Piece NumberOfPoints="36" NumberOfCells="0" >
         <Points>
            <DataArray type="Float64" Name="Position" NumberOfComponents="3" format="ascii">
               0  -0.01  0
               0  -0.00666667  0
               0  -0.00333333  0
               0  0  0
               0  0.00333333  0
               0  0.00666667  0
               0  0.01  0
               0.2  -0.01  0
               0.2  -0.00666667  0
               0.2  -0.00333333  0
               0.2  0  0
               0.2  0.00333333  0
               0.2  0.00666667  0
               0.2  0.01  0
               0.0166667  -0.01  0
               0.0333333  -0.01  0
               0.05  -0.01  0
               0.0666667  -0.01  0
               0.0833333  -0.01  0
               0.1  -0.01  0
               0.116667  -0.01  0
               0.133333  -0.01  0
               0.15  -0.01  0
               0.166667  -0.01  0
               0.183333  -0.01  0
               0.0166667  0.01  0
               0.0333333  0.01  0
               0.05  0.01  0
               0.0666667  0.01  0
               0.0833333  0.01  0
               0.1  0.01  0
               0.116667  0.01  0
               0.133333  0.01  0
               0.15  0.01  0
               0.166667  0.01  0
               0.183333  0.01  0
            </DataArray>
         </Points>

         <Cells>
            <DataArray type="Int32" Name="connectivity" NumberOfComponents="1" format="ascii">

            </DataArray>
            <DataArray type="Int32" Name="offsets" NumberOfComponents="1" format="ascii">

            </DataArray>
            <DataArray type="UInt8"  Name="types" NumberOfComponents="1" format="ascii">

            </DataArray>
         </Cells>
         <PointData Scalars="Rank " Vectors="Displacement Force ">
            <DataArray type="UInt32" Name="Rank" NumberOfComponents="1" format="ascii">
               0 0 0 0 0 0 0 0 0 0 0 0 0 0 0 0 0 0 0 0 0 0 0 0 0 0 0 0 0 0 0 0 0 0 0 0
            </DataArray>
            <DataArray type="Float64" Name="Displacement" NumberOfComponents="3" format="ascii">
               -2.42851e-05 2.94884e-08 0.0  -1.61901e-05 1.96589e-08 0.0  -8.09504e-06 9.82947e-09 0.0  0 0 0.0  8.09504e-06 -9.82947e-09 0.0  1.61901e-05 -1.96589e-08 0.0  2.42851e-05 -2.94884e-08 0.0  -2.48749e-05 -0.000485673 0.0  -1.67799e-05 -0.000485683 0.0  -8.68481e-06 -0.000485693 0.0  -5.89768e-07 -0.000485703 0.0  7.50527e-06 -0.000485712 0.0  1.56003e-05 -0.000485722 0.0  2.36954e-05 -0.000485732 0.0  -2.43343e-05 -4.04457e-05 0.0  -2.43834e-05 -8.09209e-05 0.0  -2.44326e-05 -0.000121396 0.0  -2.44817e-05 -0.000161871 0.0  -2.45309e-05 -0.000202347 0.0  -2.458e-05 -0.000242822 0.0  -2.46292e-05 -0.000283297 0.0  -2.46783e-05 -0.000323772 0.0  -2.47275e-05 -0.000364247 0.0  -2.47766e-05 -0.000404723 0.0  -2.48257e-05 -0.000445198 0.0  2.4236e-05 -4.05047e-05 0.0  2.41868e-05 -8.09799e-05 0.0  2.41377e-05 -0.000121455 0.0  2.40885e-05 -0.00016193 0.0  2.40394e-05 -0.000202406 0.0  2.39902e-05 -0.000242881 0.0  2.39411e-05 -0.000283356 0.0  2.38919e-05 -0.000323831 0.0  2.38428e-05 -0.000364306 0.0  2.37937e-05 -0.000404782 0.0  2.37445e-05 -0.000445257 0.0
            </DataArray>
            <DataArray type="Float64" Name="Force" NumberOfComponents="3" format="ascii">
               0.0139271 -0.00703267 0.0  1.20933 -0.0102986 0.0  1.22255 0.00800085 0.0  -0.352337 -0.000566769 0.0  1.25057 -0.0329242 0.0  1.23853 -0.0579618 0.0  0.00678666 -0.223658 0.0  0.0311193 -0.0651888 0.0  0.15056 -0.00902512 0.0  0.143005 -0.00617873 0.0  -0.0534299 -0.000943307 0.0  0.246289 0.0210088 0.0  0.254835 0.0269677 0.0  0.0683341 0.101907 0.0  0.4887 -0.237585 0.0  0.274729 -0.0758782 0.0  0.25268 0.0656374 0.0  0.231024 0.083372 0.0  0.221399 0.080726 0.0  0.21558 0.0700473 0.0  0.212023 0.0484863 0.0  0.208597 0.0197075 0.0  0.209991 -0.0181455 0.0  0.200978 -0.0680546 0.0  0.233285 -0.131925 0.0  0.466903 -0.610356 0.0  0.242136 -0.560589 0.0  0.212697 -0.620754 0.0  0.192612 -0.578986 0.0  0.193493 -0.548326 0.0  0.200439 -0.503002 0.0  0.212605 -0.430207 0.0  0.226516 -0.334383 0.0  0.249365 -0.212496 0.0  0.263179 -0.0573498 0.0  0.335454 0.153414 0.0
            </DataArray>
         </PointData>
      </Piece>
   </UnstructuredGrid>
</VTKFile>
