<?xml version="1.0"?>
<VTKFile type="UnstructuredGrid" version="0.1" byte_order="LittleEndian">
   <UnstructuredGrid>
      <Piece NumberOfPoints="36" NumberOfCells="0" >
         <Points>
            <DataArray type="Float64" Name="Position" NumberOfComponents="3" format="ascii">
               0  -0.01  0
               0  -0.00666667  0
               0  -0.00333333  0
               0  0  0
               0  0.00333333  0
               0  0.00666667  0
               0  0.01  0
               0.2  -0.01  0
               0.2  -0.00666667  0
               0.2  -0.00333333  0
               0.2  0  0
               0.2  0.00333333  0
               0.2  0.00666667  0
               0.2  0.01  0
               0.0166667  -0.01  0
               0.0333333  -0.01  0
               0.05  -0.01  0
               0.0666667  -0.01  0
               0.0833333  -0.01  0
               0.1  -0.01  0
               0.116667  -0.01  0
               0.133333  -0.01  0
               0.15  -0.01  0
               0.166667  -0.01  0
               0.183333  -0.01  0
               0.0166667  0.01  0
               0.0333333  0.01  0
               0.05  0.01  0
               0.0666667  0.01  0
               0.0833333  0.01  0
               0.1  0.01  0
               0.116667  0.01  0
               0.133333  0.01  0
               0.15  0.01  0
               0.166667  0.01  0
               0.183333  0.01  0
            </DataArray>
         </Points>

         <Cells>
            <DataArray type="Int32" Name="connectivity" NumberOfComponents="1" format="ascii">

            </DataArray>
            <DataArray type="Int32" Name="offsets" NumberOfComponents="1" format="ascii">

            </DataArray>
            <DataArray type="UInt8"  Name="types" NumberOfComponents="1" format="ascii">

            </DataArray>
         </Cells>
         <PointData Scalars="Rank " Vectors="Displacement Force ">
            <DataArray type="UInt32" Name="Rank" NumberOfComponents="1" format="ascii">
               0 0 0 0 0 0 0 0 0 0 0 0 0 0 0 0 0 0 0 0 0 0 0 0 0 0 0 0 0 0 0 0 0 0 0 0
            </DataArray>
            <DataArray type="Float64" Name="Displacement" NumberOfComponents="3" format="ascii">
               0.000157191 1.23553e-06 0.0  0.000104794 8.23688e-07 0.0  5.23971e-05 4.11844e-07 0.0  0 0 0.0  -5.23971e-05 -4.11844e-07 0.0  -0.000104794 -8.23688e-07 0.0  -0.000157191 -1.23553e-06 0.0  0.000132481 0.00314506 0.0  8.00836e-05 0.00314465 0.0  2.76865e-05 0.00314424 0.0  -2.47106e-05 0.00314383 0.0  -7.71077e-05 0.00314341 0.0  -0.000129505 0.003143 0.0  -0.000181902 0.00314259 0.0  0.000155132 0.000263221 0.0  0.000153073 0.000525207 0.0  0.000151014 0.000787192 0.0  0.000148954 0.00104918 0.0  0.000146895 0.00131116 0.0  0.000144836 0.00157315 0.0  0.000142777 0.00183513 0.0  0.000140718 0.00209712 0.0  0.000138658 0.00235911 0.0  0.000136599 0.00262109 0.0  0.00013454 0.00288308 0.0  -0.000159251 0.00026075 0.0  -0.00016131 0.000522735 0.0  -0.000163369 0.000784721 0.0  -0.000165428 0.00104671 0.0  -0.000167487 0.00130869 0.0  -0.000169547 0.00157068 0.0  -0.000171606 0.00183266 0.0  -0.000173665 0.00209465 0.0  -0.000175724 0.00235663 0.0  -0.000177783 0.00261862 0.0  -0.000179843 0.0028806 0.0
            </DataArray>
            <DataArray type="Float64" Name="Force" NumberOfComponents="3" format="ascii">
               0.00341075 -0.0451464 0.0  1.19536 -0.0082963 0.0  1.20756 0.0136722 0.0  -0.351034 -0.0027909 0.0  1.25769 -0.0218393 0.0  1.24588 -0.0525299 0.0  0.0188847 -0.237599 0.0  0.0429106 -0.0725807 0.0  0.183128 -0.0188456 0.0  0.174552 -0.0122082 0.0  -0.0492362 -0.000853184 0.0  0.186088 0.0210447 0.0  0.193995 0.0246752 0.0  0.0565235 0.0815119 0.0  0.443902 -0.332019 0.0  0.215241 -0.100293 0.0  0.191942 0.0807542 0.0  0.17776 0.12912 0.0  0.178584 0.150343 0.0  0.182619 0.153102 0.0  0.188669 0.131575 0.0  0.195977 0.0906007 0.0  0.208768 0.0305289 0.0  0.212551 -0.0469262 0.0  0.261196 -0.15162 0.0  0.52146 -0.659047 0.0  0.311612 -0.557635 0.0  0.280791 -0.580546 0.0  0.251779 -0.507197 0.0  0.241211 -0.447596 0.0  0.237222 -0.384054 0.0  0.237406 -0.311087 0.0  0.239655 -0.227637 0.0  0.249305 -0.130638 0.0  0.248624 -0.0164081 0.0  0.298532 0.123893 0.0
            </DataArray>
         </PointData>
      </Piece>
   </UnstructuredGrid>
</VTKFile>
