<?xml version="1.0"?>
<VTKFile type="UnstructuredGrid" version="0.1" byte_order="LittleEndian">
   <UnstructuredGrid>
      <Piece NumberOfPoints="36" NumberOfCells="0" >
         <Points>
            <DataArray type="Float64" Name="Position" NumberOfComponents="3" format="ascii">
               0  -0.01  0
               0  -0.00666667  0
               0  -0.00333333  0
               0  0  0
               0  0.00333333  0
               0  0.00666667  0
               0  0.01  0
               0.2  -0.01  0
               0.2  -0.00666667  0
               0.2  -0.00333333  0
               0.2  0  0
               0.2  0.00333333  0
               0.2  0.00666667  0
               0.2  0.01  0
               0.0166667  -0.01  0
               0.0333333  -0.01  0
               0.05  -0.01  0
               0.0666667  -0.01  0
               0.0833333  -0.01  0
               0.1  -0.01  0
               0.116667  -0.01  0
               0.133333  -0.01  0
               0.15  -0.01  0
               0.166667  -0.01  0
               0.183333  -0.01  0
               0.0166667  0.01  0
               0.0333333  0.01  0
               0.05  0.01  0
               0.0666667  0.01  0
               0.0833333  0.01  0
               0.1  0.01  0
               0.116667  0.01  0
               0.133333  0.01  0
               0.15  0.01  0
               0.166667  0.01  0
               0.183333  0.01  0
            </DataArray>
         </Points>

         <Cells>
            <DataArray type="Int32" Name="connectivity" NumberOfComponents="1" format="ascii">

            </DataArray>
            <DataArray type="Int32" Name="offsets" NumberOfComponents="1" format="ascii">

            </DataArray>
            <DataArray type="UInt8"  Name="types" NumberOfComponents="1" format="ascii">

            </DataArray>
         </Cells>
         <PointData Scalars="Rank " Vectors="Displacement Force ">
            <DataArray type="UInt32" Name="Rank" NumberOfComponents="1" format="ascii">
               0 0 0 0 0 0 0 0 0 0 0 0 0 0 0 0 0 0 0 0 0 0 0 0 0 0 0 0 0 0 0 0 0 0 0 0
            </DataArray>
            <DataArray type="Float64" Name="Displacement" NumberOfComponents="3" format="ascii">
               1.13022e-05 6.387e-09 0.0  7.5348e-06 4.258e-09 0.0  3.7674e-06 2.129e-09 0.0  0 0 0.0  -3.7674e-06 -2.129e-09 0.0  -7.5348e-06 -4.258e-09 0.0  -1.13022e-05 -6.387e-09 0.0  1.11745e-05 0.000226051 0.0  7.40706e-06 0.000226048 0.0  3.63966e-06 0.000226046 0.0  -1.2774e-07 0.000226044 0.0  -3.89514e-06 0.000226042 0.0  -7.66254e-06 0.00022604 0.0  -1.14299e-05 0.000226038 0.0  1.12916e-05 1.88434e-05 0.0  1.12809e-05 3.76804e-05 0.0  1.12703e-05 5.65174e-05 0.0  1.12596e-05 7.53544e-05 0.0  1.1249e-05 9.41914e-05 0.0  1.12383e-05 0.000113028 0.0  1.12277e-05 0.000131865 0.0  1.1217e-05 0.000150702 0.0  1.12064e-05 0.000169539 0.0  1.11958e-05 0.000188376 0.0  1.11851e-05 0.000207214 0.0  -1.13129e-05 1.88306e-05 0.0  -1.13235e-05 3.76676e-05 0.0  -1.13341e-05 5.65046e-05 0.0  -1.13448e-05 7.53417e-05 0.0  -1.13554e-05 9.41787e-05 0.0  -1.13661e-05 0.000113016 0.0  -1.13767e-05 0.000131853 0.0  -1.13874e-05 0.00015069 0.0  -1.1398e-05 0.000169527 0.0  -1.14087e-05 0.000188364 0.0  -1.14193e-05 0.000207201 0.0
            </DataArray>
            <DataArray type="Float64" Name="Force" NumberOfComponents="3" format="ascii">
               0.00818392 0.0759775 0.0  1.21985 0.0119241 0.0  1.23163 0.02019 0.0  -0.352229 0.000553498 0.0  1.24314 -0.0295827 0.0  1.23142 -0.034369 0.0  0.0154086 -0.152453 0.0  0.0482756 -0.0759115 0.0  0.192857 -0.0194353 0.0  0.184458 -0.0182031 0.0  -0.0498487 -0.000100346 0.0  0.180904 0.0187502 0.0  0.18893 0.0183785 0.0  0.0507512 0.0779838 0.0  0.468917 0.0604653 0.0  0.244584 0.156283 0.0  0.222652 0.277094 0.0  0.202597 0.275212 0.0  0.199496 0.274353 0.0  0.202078 0.256478 0.0  0.207279 0.216111 0.0  0.212924 0.158002 0.0  0.224868 0.0818019 0.0  0.227381 -0.013458 0.0  0.27702 -0.13658 0.0  0.495501 -0.326136 0.0  0.273379 -0.313976 0.0  0.24538 -0.383144 0.0  0.222488 -0.358732 0.0  0.216029 -0.330076 0.0  0.215801 -0.290676 0.0  0.218567 -0.236617 0.0  0.222702 -0.168944 0.0  0.233597 -0.0866283 0.0  0.234471 0.012026 0.0  0.283032 0.134128 0.0
            </DataArray>
         </PointData>
      </Piece>
   </UnstructuredGrid>
</VTKFile>
