<?xml version="1.0"?>
<VTKFile type="UnstructuredGrid" version="0.1" byte_order="LittleEndian">
   <UnstructuredGrid>
      <Piece NumberOfPoints="36" NumberOfCells="0" >
         <Points>
            <DataArray type="Float64" Name="Position" NumberOfComponents="3" format="ascii">
               0  -0.01  0
               0  -0.00666667  0
               0  -0.00333333  0
               0  0  0
               0  0.00333333  0
               0  0.00666667  0
               0  0.01  0
               0.2  -0.01  0
               0.2  -0.00666667  0
               0.2  -0.00333333  0
               0.2  0  0
               0.2  0.00333333  0
               0.2  0.00666667  0
               0.2  0.01  0
               0.0166667  -0.01  0
               0.0333333  -0.01  0
               0.05  -0.01  0
               0.0666667  -0.01  0
               0.0833333  -0.01  0
               0.1  -0.01  0
               0.116667  -0.01  0
               0.133333  -0.01  0
               0.15  -0.01  0
               0.166667  -0.01  0
               0.183333  -0.01  0
               0.0166667  0.01  0
               0.0333333  0.01  0
               0.05  0.01  0
               0.0666667  0.01  0
               0.0833333  0.01  0
               0.1  0.01  0
               0.116667  0.01  0
               0.133333  0.01  0
               0.15  0.01  0
               0.166667  0.01  0
               0.183333  0.01  0
            </DataArray>
         </Points>

         <Cells>
            <DataArray type="Int32" Name="connectivity" NumberOfComponents="1" format="ascii">

            </DataArray>
            <DataArray type="Int32" Name="offsets" NumberOfComponents="1" format="ascii">

            </DataArray>
            <DataArray type="UInt8"  Name="types" NumberOfComponents="1" format="ascii">

            </DataArray>
         </Cells>
         <PointData Scalars="Rank " Vectors="Displacement Force ">
            <DataArray type="UInt32" Name="Rank" NumberOfComponents="1" format="ascii">
               0 0 0 0 0 0 0 0 0 0 0 0 0 0 0 0 0 0 0 0 0 0 0 0 0 0 0 0 0 0 0 0 0 0 0 0
            </DataArray>
            <DataArray type="Float64" Name="Displacement" NumberOfComponents="3" format="ascii">
               -1.38257e-05 9.55746e-09 0.0  -9.21711e-06 6.37164e-09 0.0  -4.60856e-06 3.18582e-09 0.0  0 0 0.0  4.60856e-06 -3.18582e-09 0.0  9.21711e-06 -6.37164e-09 0.0  1.38257e-05 -9.55746e-09 0.0  -1.40168e-05 -0.000276504 0.0  -9.40826e-06 -0.000276507 0.0  -4.7997e-06 -0.00027651 0.0  -1.91149e-07 -0.000276513 0.0  4.41741e-06 -0.000276516 0.0  9.02596e-06 -0.00027652 0.0  1.36345e-05 -0.000276523 0.0  -1.38416e-05 -2.30332e-05 0.0  -1.38575e-05 -4.6076e-05 0.0  -1.38735e-05 -6.91188e-05 0.0  -1.38894e-05 -9.21615e-05 0.0  -1.39053e-05 -0.000115204 0.0  -1.39212e-05 -0.000138247 0.0  -1.39372e-05 -0.00016129 0.0  -1.39531e-05 -0.000184333 0.0  -1.3969e-05 -0.000207375 0.0  -1.3985e-05 -0.000230418 0.0  -1.40009e-05 -0.000253461 0.0  1.38097e-05 -2.30523e-05 0.0  1.37938e-05 -4.60951e-05 0.0  1.37779e-05 -6.91379e-05 0.0  1.37619e-05 -9.21807e-05 0.0  1.3746e-05 -0.000115223 0.0  1.37301e-05 -0.000138266 0.0  1.37142e-05 -0.000161309 0.0  1.36982e-05 -0.000184352 0.0  1.36823e-05 -0.000207395 0.0  1.36664e-05 -0.000230437 0.0  1.36504e-05 -0.00025348 0.0
            </DataArray>
            <DataArray type="Float64" Name="Force" NumberOfComponents="3" format="ascii">
               0.00977717 0.0780102 0.0  1.2217 0.0113267 0.0  1.23224 0.0189806 0.0  -0.351471 0.000212036 0.0  1.24135 -0.0305497 0.0  1.23089 -0.0353704 0.0  0.0139519 -0.150989 0.0  0.0470461 -0.0774948 0.0  0.174069 -0.0169434 0.0  0.165751 -0.0157371 0.0  -0.0481422 -0.000806149 0.0  0.187823 0.0205186 0.0  0.196767 0.0205569 0.0  0.053426 0.0769924 0.0  0.475477 0.062935 0.0  0.254259 0.135097 0.0  0.228877 0.234121 0.0  0.205984 0.236839 0.0  0.202452 0.234127 0.0  0.203914 0.211862 0.0  0.20804 0.170692 0.0  0.212277 0.114363 0.0  0.222857 0.042789 0.0  0.223992 -0.0424201 0.0  0.271203 -0.150663 0.0  0.490919 -0.323857 0.0  0.267868 -0.315275 0.0  0.236044 -0.387783 0.0  0.215542 -0.380214 0.0  0.211123 -0.363488 0.0  0.21252 -0.331354 0.0  0.217028 -0.280497 0.0  0.222925 -0.212126 0.0  0.235535 -0.125198 0.0  0.237766 -0.0165722 0.0  0.289043 0.120972 0.0
            </DataArray>
         </PointData>
      </Piece>
   </UnstructuredGrid>
</VTKFile>
