<?xml version="1.0"?>
<VTKFile type="UnstructuredGrid" version="0.1" byte_order="LittleEndian">
   <UnstructuredGrid>
      <Piece NumberOfPoints="36" NumberOfCells="0" >
         <Points>
            <DataArray type="Float64" Name="Position" NumberOfComponents="3" format="ascii">
               0  -0.01  0
               0  -0.00666667  0
               0  -0.00333333  0
               0  0  0
               0  0.00333333  0
               0  0.00666667  0
               0  0.01  0
               0.2  -0.01  0
               0.2  -0.00666667  0
               0.2  -0.00333333  0
               0.2  0  0
               0.2  0.00333333  0
               0.2  0.00666667  0
               0.2  0.01  0
               0.0166667  -0.01  0
               0.0333333  -0.01  0
               0.05  -0.01  0
               0.0666667  -0.01  0
               0.0833333  -0.01  0
               0.1  -0.01  0
               0.116667  -0.01  0
               0.133333  -0.01  0
               0.15  -0.01  0
               0.166667  -0.01  0
               0.183333  -0.01  0
               0.0166667  0.01  0
               0.0333333  0.01  0
               0.05  0.01  0
               0.0666667  0.01  0
               0.0833333  0.01  0
               0.1  0.01  0
               0.116667  0.01  0
               0.133333  0.01  0
               0.15  0.01  0
               0.166667  0.01  0
               0.183333  0.01  0
            </DataArray>
         </Points>

         <Cells>
            <DataArray type="Int32" Name="connectivity" NumberOfComponents="1" format="ascii">

            </DataArray>
            <DataArray type="Int32" Name="offsets" NumberOfComponents="1" format="ascii">

            </DataArray>
            <DataArray type="UInt8"  Name="types" NumberOfComponents="1" format="ascii">

            </DataArray>
         </Cells>
         <PointData Scalars="Rank " Vectors="Displacement Force ">
            <DataArray type="UInt32" Name="Rank" NumberOfComponents="1" format="ascii">
               0 0 0 0 0 0 0 0 0 0 0 0 0 0 0 0 0 0 0 0 0 0 0 0 0 0 0 0 0 0 0 0 0 0 0 0
            </DataArray>
            <DataArray type="Float64" Name="Displacement" NumberOfComponents="3" format="ascii">
               9.00779e-06 4.05701e-09 0.0  6.00519e-06 2.70468e-09 0.0  3.0026e-06 1.35234e-09 0.0  0 0 0.0  -3.0026e-06 -1.35234e-09 0.0  -6.00519e-06 -2.70468e-09 0.0  -9.00779e-06 -4.05701e-09 0.0  8.92665e-06 0.00018016 0.0  5.92405e-06 0.000180158 0.0  2.92146e-06 0.000180157 0.0  -8.11403e-08 0.000180156 0.0  -3.08374e-06 0.000180154 0.0  -6.08633e-06 0.000180153 0.0  -9.08893e-06 0.000180152 0.0  9.00103e-06 1.5017e-05 0.0  8.99426e-06 3.003e-05 0.0  8.9875e-06 4.5043e-05 0.0  8.98074e-06 6.0056e-05 0.0  8.97398e-06 7.5069e-05 0.0  8.96722e-06 9.00819e-05 0.0  8.96046e-06 0.000105095 0.0  8.95369e-06 0.000120108 0.0  8.94693e-06 0.000135121 0.0  8.94017e-06 0.000150134 0.0  8.93341e-06 0.000165147 0.0  -9.01455e-06 1.50089e-05 0.0  -9.02131e-06 3.00219e-05 0.0  -9.02807e-06 4.50349e-05 0.0  -9.03483e-06 6.00479e-05 0.0  -9.0416e-06 7.50608e-05 0.0  -9.04836e-06 9.00738e-05 0.0  -9.05512e-06 0.000105087 0.0  -9.06188e-06 0.0001201 0.0  -9.06864e-06 0.000135113 0.0  -9.0754e-06 0.000150126 0.0  -9.08217e-06 0.000165139 0.0
            </DataArray>
            <DataArray type="Float64" Name="Force" NumberOfComponents="3" format="ascii">
               0.011112 0.0503634 0.0  1.19926 0.00895312 0.0  1.21045 0.0177812 0.0  -0.346307 0.000875932 0.0  1.22281 -0.0278234 0.0  1.21182 -0.0336935 0.0  0.0163147 -0.134431 0.0  0.0477095 -0.0919381 0.0  0.205822 -0.0204384 0.0  0.197718 -0.0191897 0.0  -0.0549592 -0.000193952 0.0  0.20317 0.0206267 0.0  0.211241 0.0193441 0.0  0.052025 0.0902418 0.0  0.470567 -0.0103398 0.0  0.24735 0.0870547 0.0  0.225705 0.202051 0.0  0.204424 0.198423 0.0  0.201135 0.194741 0.0  0.203084 0.17494 0.0  0.207662 0.134478 0.0  0.213174 0.0789722 0.0  0.225743 0.00755764 0.0  0.229375 -0.0757334 0.0  0.281966 -0.187631 0.0  0.490865 -0.290661 0.0  0.26824 -0.279397 0.0  0.239029 -0.350416 0.0  0.217667 -0.335731 0.0  0.212127 -0.312243 0.0  0.21286 -0.274996 0.0  0.216444 -0.221025 0.0  0.221915 -0.152842 0.0  0.234926 -0.069332 0.0  0.238512 0.0296655 0.0  0.29271 0.15717 0.0
            </DataArray>
         </PointData>
      </Piece>
   </UnstructuredGrid>
</VTKFile>
