<?xml version="1.0"?>
<VTKFile type="UnstructuredGrid" version="0.1" byte_order="LittleEndian">
   <UnstructuredGrid>
      <Piece NumberOfPoints="36" NumberOfCells="0" >
         <Points>
            <DataArray type="Float64" Name="Position" NumberOfComponents="3" format="ascii">
               0  -0.01  0
               0  -0.00666667  0
               0  -0.00333333  0
               0  0  0
               0  0.00333333  0
               0  0.00666667  0
               0  0.01  0
               0.2  -0.01  0
               0.2  -0.00666667  0
               0.2  -0.00333333  0
               0.2  0  0
               0.2  0.00333333  0
               0.2  0.00666667  0
               0.2  0.01  0
               0.0166667  -0.01  0
               0.0333333  -0.01  0
               0.05  -0.01  0
               0.0666667  -0.01  0
               0.0833333  -0.01  0
               0.1  -0.01  0
               0.116667  -0.01  0
               0.133333  -0.01  0
               0.15  -0.01  0
               0.166667  -0.01  0
               0.183333  -0.01  0
               0.0166667  0.01  0
               0.0333333  0.01  0
               0.05  0.01  0
               0.0666667  0.01  0
               0.0833333  0.01  0
               0.1  0.01  0
               0.116667  0.01  0
               0.133333  0.01  0
               0.15  0.01  0
               0.166667  0.01  0
               0.183333  0.01  0
            </DataArray>
         </Points>

         <Cells>
            <DataArray type="Int32" Name="connectivity" NumberOfComponents="1" format="ascii">

            </DataArray>
            <DataArray type="Int32" Name="offsets" NumberOfComponents="1" format="ascii">

            </DataArray>
            <DataArray type="UInt8"  Name="types" NumberOfComponents="1" format="ascii">

            </DataArray>
         </Cells>
         <PointData Scalars="Rank " Vectors="Displacement Force ">
            <DataArray type="UInt32" Name="Rank" NumberOfComponents="1" format="ascii">
               0 0 0 0 0 0 0 0 0 0 0 0 0 0 0 0 0 0 0 0 0 0 0 0 0 0 0 0 0 0 0 0 0 0 0 0
            </DataArray>
            <DataArray type="Float64" Name="Displacement" NumberOfComponents="3" format="ascii">
               6.73385e-05 2.26726e-07 0.0  4.48923e-05 1.51151e-07 0.0  2.24462e-05 7.55753e-08 0.0  0 0 0.0  -2.24462e-05 -7.55753e-08 0.0  -4.48923e-05 -1.51151e-07 0.0  -6.73385e-05 -2.26726e-07 0.0  6.28039e-05 0.001347 0.0  4.03578e-05 0.00134692 0.0  1.79116e-05 0.00134684 0.0  -4.53452e-06 0.00134677 0.0  -2.69807e-05 0.00134669 0.0  -4.94268e-05 0.00134662 0.0  -7.1873e-05 0.00134654 0.0  6.69606e-05 0.000112457 0.0  6.65827e-05 0.000224688 0.0  6.62048e-05 0.000336919 0.0  6.5827e-05 0.00044915 0.0  6.54491e-05 0.000561381 0.0  6.50712e-05 0.000673611 0.0  6.46933e-05 0.000785842 0.0  6.43155e-05 0.000898073 0.0  6.39376e-05 0.0010103 0.0  6.35597e-05 0.00112253 0.0  6.31818e-05 0.00123477 0.0  -6.77163e-05 0.000112004 0.0  -6.80942e-05 0.000224235 0.0  -6.84721e-05 0.000336466 0.0  -6.885e-05 0.000448696 0.0  -6.92278e-05 0.000560927 0.0  -6.96057e-05 0.000673158 0.0  -6.99836e-05 0.000785389 0.0  -7.03615e-05 0.000897619 0.0  -7.07394e-05 0.00100985 0.0  -7.11172e-05 0.00112208 0.0  -7.14951e-05 0.00123431 0.0
            </DataArray>
            <DataArray type="Float64" Name="Force" NumberOfComponents="3" format="ascii">
               0.00909467 -0.0118024 0.0  1.1898 -0.00146624 0.0  1.2009 0.0134811 0.0  -0.346125 -0.00170021 0.0  1.23218 -0.0250524 0.0  1.22158 -0.0447881 0.0  0.0173996 -0.180199 0.0  0.0417414 -0.0986549 0.0  0.198035 -0.0224399 0.0  0.189982 -0.0159644 0.0  -0.0538726 -0.000636986 0.0  0.203039 0.0210785 0.0  0.210725 0.0231714 0.0  0.0534115 0.094544 0.0  0.461028 -0.215793 0.0  0.236112 -0.0537124 0.0  0.214659 0.0916704 0.0  0.19667 0.114263 0.0  0.195134 0.118177 0.0  0.197474 0.107412 0.0  0.201733 0.075438 0.0  0.206687 0.0267737 0.0  0.217389 -0.0395207 0.0  0.21832 -0.116181 0.0  0.264145 -0.222163 0.0  0.500276 -0.469003 0.0  0.283124 -0.422376 0.0  0.255043 -0.473991 0.0  0.229256 -0.429525 0.0  0.221769 -0.3904 0.0  0.221307 -0.341855 0.0  0.224327 -0.278977 0.0  0.228702 -0.201528 0.0  0.240449 -0.106786 0.0  0.242376 0.00666041 0.0  0.293947 0.150869 0.0
            </DataArray>
         </PointData>
      </Piece>
   </UnstructuredGrid>
</VTKFile>
