<?xml version="1.0"?>
<VTKFile type="UnstructuredGrid" version="0.1" byte_order="LittleEndian">
   <UnstructuredGrid>
      <Piece NumberOfPoints="36" NumberOfCells="0" >
         <Points>
            <DataArray type="Float64" Name="Position" NumberOfComponents="3" format="ascii">
               0  -0.01  0
               0  -0.00666667  0
               0  -0.00333333  0
               0  0  0
               0  0.00333333  0
               0  0.00666667  0
               0  0.01  0
               0.2  -0.01  0
               0.2  -0.00666667  0
               0.2  -0.00333333  0
               0.2  0  0
               0.2  0.00333333  0
               0.2  0.00666667  0
               0.2  0.01  0
               0.0166667  -0.01  0
               0.0333333  -0.01  0
               0.05  -0.01  0
               0.0666667  -0.01  0
               0.0833333  -0.01  0
               0.1  -0.01  0
               0.116667  -0.01  0
               0.133333  -0.01  0
               0.15  -0.01  0
               0.166667  -0.01  0
               0.183333  -0.01  0
               0.0166667  0.01  0
               0.0333333  0.01  0
               0.05  0.01  0
               0.0666667  0.01  0
               0.0833333  0.01  0
               0.1  0.01  0
               0.116667  0.01  0
               0.133333  0.01  0
               0.15  0.01  0
               0.166667  0.01  0
               0.183333  0.01  0
            </DataArray>
         </Points>

         <Cells>
            <DataArray type="Int32" Name="connectivity" NumberOfComponents="1" format="ascii">

            </DataArray>
            <DataArray type="Int32" Name="offsets" NumberOfComponents="1" format="ascii">

            </DataArray>
            <DataArray type="UInt8"  Name="types" NumberOfComponents="1" format="ascii">

            </DataArray>
         </Cells>
         <PointData Scalars="Rank " Vectors="Displacement Force ">
            <DataArray type="UInt32" Name="Rank" NumberOfComponents="1" format="ascii">
               0 0 0 0 0 0 0 0 0 0 0 0 0 0 0 0 0 0 0 0 0 0 0 0 0 0 0 0 0 0 0 0 0 0 0 0
            </DataArray>
            <DataArray type="Float64" Name="Displacement" NumberOfComponents="3" format="ascii">
               0.000128291 8.22964e-07 0.0  8.55274e-05 5.48643e-07 0.0  4.27637e-05 2.74321e-07 0.0  0 0 0.0  -4.27637e-05 -2.74321e-07 0.0  -8.55274e-05 -5.48643e-07 0.0  -0.000128291 -8.22964e-07 0.0  0.000111832 0.00256664 0.0  6.90681e-05 0.00256637 0.0  2.63044e-05 0.0025661 0.0  -1.64593e-05 0.00256582 0.0  -5.9223e-05 0.00256555 0.0  -0.000101987 0.00256527 0.0  -0.00014475 0.002565 0.0  0.000126919 0.000214641 0.0  0.000125548 0.00042846 0.0  0.000124176 0.000642278 0.0  0.000122805 0.000856097 0.0  0.000121433 0.00106992 0.0  0.000120061 0.00128373 0.0  0.00011869 0.00149755 0.0  0.000117318 0.00171137 0.0  0.000115947 0.00192519 0.0  0.000114575 0.00213901 0.0  0.000113203 0.00235283 0.0  -0.000129663 0.000212996 0.0  -0.000131034 0.000426814 0.0  -0.000132406 0.000640633 0.0  -0.000133778 0.000854451 0.0  -0.000135149 0.00106827 0.0  -0.000136521 0.00128209 0.0  -0.000137892 0.00149591 0.0  -0.000139264 0.00170973 0.0  -0.000140636 0.00192354 0.0  -0.000142007 0.00213736 0.0  -0.000143379 0.00235118 0.0
            </DataArray>
            <DataArray type="Float64" Name="Force" NumberOfComponents="3" format="ascii">
               0.00273016 0.0253591 0.0  1.20795 0.00645496 0.0  1.21835 0.0209451 0.0  -0.350645 0.000382296 0.0  1.24983 -0.0252547 0.0  1.23943 -0.0358326 0.0  0.0188506 -0.184242 0.0  0.0494895 -0.0737093 0.0  0.221545 -0.0155896 0.0  0.211886 -0.0141717 0.0  -0.0488475 -0.000984699 0.0  0.146323 0.0161603 0.0  0.153828 0.015158 0.0  0.0501622 0.0807508 0.0  0.448706 -0.0883582 0.0  0.220892 0.0970574 0.0  0.198243 0.28734 0.0  0.184526 0.340213 0.0  0.186986 0.371307 0.0  0.192666 0.380453 0.0  0.199715 0.353639 0.0  0.209231 0.293745 0.0  0.224298 0.205644 0.0  0.230471 0.0814959 0.0  0.285848 -0.0927138 0.0  0.515531 -0.442565 0.0  0.301995 -0.374522 0.0  0.269969 -0.386821 0.0  0.239894 -0.305872 0.0  0.227911 -0.237269 0.0  0.222961 -0.170563 0.0  0.222444 -0.103714 0.0  0.223501 -0.0372971 0.0  0.231608 0.0321778 0.0  0.229695 0.0989256 0.0  0.274071 0.170943 0.0
            </DataArray>
         </PointData>
      </Piece>
   </UnstructuredGrid>
</VTKFile>
