<?xml version="1.0"?>
<VTKFile type="UnstructuredGrid" version="0.1" byte_order="LittleEndian">
   <UnstructuredGrid>
      <Piece NumberOfPoints="36" NumberOfCells="0" >
         <Points>
            <DataArray type="Float64" Name="Position" NumberOfComponents="3" format="ascii">
               0  -0.01  0
               0  -0.00666667  0
               0  -0.00333333  0
               0  0  0
               0  0.00333333  0
               0  0.00666667  0
               0  0.01  0
               0.2  -0.01  0
               0.2  -0.00666667  0
               0.2  -0.00333333  0
               0.2  0  0
               0.2  0.00333333  0
               0.2  0.00666667  0
               0.2  0.01  0
               0.0166667  -0.01  0
               0.0333333  -0.01  0
               0.05  -0.01  0
               0.0666667  -0.01  0
               0.0833333  -0.01  0
               0.1  -0.01  0
               0.116667  -0.01  0
               0.133333  -0.01  0
               0.15  -0.01  0
               0.166667  -0.01  0
               0.183333  -0.01  0
               0.0166667  0.01  0
               0.0333333  0.01  0
               0.05  0.01  0
               0.0666667  0.01  0
               0.0833333  0.01  0
               0.1  0.01  0
               0.116667  0.01  0
               0.133333  0.01  0
               0.15  0.01  0
               0.166667  0.01  0
               0.183333  0.01  0
            </DataArray>
         </Points>

         <Cells>
            <DataArray type="Int32" Name="connectivity" NumberOfComponents="1" format="ascii">

            </DataArray>
            <DataArray type="Int32" Name="offsets" NumberOfComponents="1" format="ascii">

            </DataArray>
            <DataArray type="UInt8"  Name="types" NumberOfComponents="1" format="ascii">

            </DataArray>
         </Cells>
         <PointData Scalars="Rank " Vectors="Displacement Force ">
            <DataArray type="UInt32" Name="Rank" NumberOfComponents="1" format="ascii">
               0 0 0 0 0 0 0 0 0 0 0 0 0 0 0 0 0 0 0 0 0 0 0 0 0 0 0 0 0 0 0 0 0 0 0 0
            </DataArray>
            <DataArray type="Float64" Name="Displacement" NumberOfComponents="3" format="ascii">
               6.82438e-06 2.32861e-09 0.0  4.54959e-06 1.55241e-09 0.0  2.27479e-06 7.76204e-10 0.0  0 0 0.0  -2.27479e-06 -7.76204e-10 0.0  -4.54959e-06 -1.55241e-09 0.0  -6.82438e-06 -2.32861e-09 0.0  6.77781e-06 0.00013649 0.0  4.50302e-06 0.000136489 0.0  2.22822e-06 0.000136488 0.0  -4.65722e-08 0.000136488 0.0  -2.32137e-06 0.000136487 0.0  -4.59616e-06 0.000136486 0.0  -6.87096e-06 0.000136485 0.0  6.8205e-06 1.13763e-05 0.0  6.81662e-06 2.27503e-05 0.0  6.81274e-06 3.41243e-05 0.0  6.80886e-06 4.54982e-05 0.0  6.80498e-06 5.68722e-05 0.0  6.8011e-06 6.82462e-05 0.0  6.79722e-06 7.96201e-05 0.0  6.79334e-06 9.09941e-05 0.0  6.78946e-06 0.000102368 0.0  6.78557e-06 0.000113742 0.0  6.78169e-06 0.000125116 0.0  -6.82827e-06 1.13716e-05 0.0  -6.83215e-06 2.27456e-05 0.0  -6.83603e-06 3.41196e-05 0.0  -6.83991e-06 4.54936e-05 0.0  -6.84379e-06 5.68675e-05 0.0  -6.84767e-06 6.82415e-05 0.0  -6.85155e-06 7.96155e-05 0.0  -6.85543e-06 9.09895e-05 0.0  -6.85931e-06 0.000102363 0.0  -6.86319e-06 0.000113737 0.0  -6.86708e-06 0.000125111 0.0
            </DataArray>
            <DataArray type="Float64" Name="Force" NumberOfComponents="3" format="ascii">
               0.00812584 0.0789563 0.0  1.22082 0.0123797 0.0  1.23226 0.0202211 0.0  -0.352016 0.000567499 0.0  1.24229 -0.0296588 0.0  1.23106 -0.033967 0.0  0.0154516 -0.150004 0.0  0.0486406 -0.0763662 0.0  0.192301 -0.0197462 0.0  0.183892 -0.0185248 0.0  -0.0497986 -8.19301e-07 0.0  0.181641 0.0184859 0.0  0.1897 0.0180796 0.0  0.050447 0.0779185 0.0  0.469555 0.0701454 0.0  0.24524 0.161503 0.0  0.223226 0.278903 0.0  0.202805 0.273935 0.0  0.199699 0.272205 0.0  0.202293 0.253599 0.0  0.207589 0.21272 0.0  0.213225 0.15429 0.0  0.225263 0.0780809 0.0  0.227864 -0.0165756 0.0  0.277666 -0.138646 0.0  0.495141 -0.317005 0.0  0.272717 -0.306472 0.0  0.244413 -0.378339 0.0  0.222017 -0.357575 0.0  0.215691 -0.330754 0.0  0.215509 -0.292564 0.0  0.218282 -0.239259 0.0  0.22241 -0.171981 0.0  0.233256 -0.0896104 0.0  0.233978 0.00969969 0.0  0.282425 0.132987 0.0
            </DataArray>
         </PointData>
      </Piece>
   </UnstructuredGrid>
</VTKFile>
