<?xml version="1.0"?>
<VTKFile type="UnstructuredGrid" version="0.1" byte_order="LittleEndian">
   <UnstructuredGrid>
      <Piece NumberOfPoints="36" NumberOfCells="0" >
         <Points>
            <DataArray type="Float64" Name="Position" NumberOfComponents="3" format="ascii">
               0  -0.01  0
               0  -0.00666667  0
               0  -0.00333333  0
               0  0  0
               0  0.00333333  0
               0  0.00666667  0
               0  0.01  0
               0.2  -0.01  0
               0.2  -0.00666667  0
               0.2  -0.00333333  0
               0.2  0  0
               0.2  0.00333333  0
               0.2  0.00666667  0
               0.2  0.01  0
               0.0166667  -0.01  0
               0.0333333  -0.01  0
               0.05  -0.01  0
               0.0666667  -0.01  0
               0.0833333  -0.01  0
               0.1  -0.01  0
               0.116667  -0.01  0
               0.133333  -0.01  0
               0.15  -0.01  0
               0.166667  -0.01  0
               0.183333  -0.01  0
               0.0166667  0.01  0
               0.0333333  0.01  0
               0.05  0.01  0
               0.0666667  0.01  0
               0.0833333  0.01  0
               0.1  0.01  0
               0.116667  0.01  0
               0.133333  0.01  0
               0.15  0.01  0
               0.166667  0.01  0
               0.183333  0.01  0
            </DataArray>
         </Points>

         <Cells>
            <DataArray type="Int32" Name="connectivity" NumberOfComponents="1" format="ascii">

            </DataArray>
            <DataArray type="Int32" Name="offsets" NumberOfComponents="1" format="ascii">

            </DataArray>
            <DataArray type="UInt8"  Name="types" NumberOfComponents="1" format="ascii">

            </DataArray>
         </Cells>
         <PointData Scalars="Rank " Vectors="Displacement Force ">
            <DataArray type="UInt32" Name="Rank" NumberOfComponents="1" format="ascii">
               0 0 0 0 0 0 0 0 0 0 0 0 0 0 0 0 0 0 0 0 0 0 0 0 0 0 0 0 0 0 0 0 0 0 0 0
            </DataArray>
            <DataArray type="Float64" Name="Displacement" NumberOfComponents="3" format="ascii">
               -6.1395e-05 1.88469e-07 0.0  -4.093e-05 1.25646e-07 0.0  -2.0465e-05 6.2823e-08 0.0  0 0 0.0  2.0465e-05 -6.2823e-08 0.0  4.093e-05 -1.25646e-07 0.0  6.1395e-05 -1.88469e-07 0.0  -6.51644e-05 -0.00122771 0.0  -4.46994e-05 -0.00122777 0.0  -2.42344e-05 -0.00122784 0.0  -3.76938e-06 -0.0012279 0.0  1.66956e-05 -0.00122796 0.0  3.71606e-05 -0.00122803 0.0  5.76256e-05 -0.00122809 0.0  -6.17091e-05 -0.000102137 0.0  -6.20232e-05 -0.000204462 0.0  -6.23373e-05 -0.000306787 0.0  -6.26515e-05 -0.000409112 0.0  -6.29656e-05 -0.000511437 0.0  -6.32797e-05 -0.000613762 0.0  -6.35938e-05 -0.000716087 0.0  -6.39079e-05 -0.000818412 0.0  -6.4222e-05 -0.000920737 0.0  -6.45362e-05 -0.00102306 0.0  -6.48503e-05 -0.00112539 0.0  6.10809e-05 -0.000102513 0.0  6.07668e-05 -0.000204838 0.0  6.04527e-05 -0.000307163 0.0  6.01385e-05 -0.000409488 0.0  5.98244e-05 -0.000511813 0.0  5.95103e-05 -0.000614139 0.0  5.91962e-05 -0.000716464 0.0  5.88821e-05 -0.000818789 0.0  5.8568e-05 -0.000921114 0.0  5.82539e-05 -0.00102344 0.0  5.79397e-05 -0.00112576 0.0
            </DataArray>
            <DataArray type="Float64" Name="Force" NumberOfComponents="3" format="ascii">
               0.0102962 0.122722 0.0  1.23225 0.0186157 0.0  1.23652 0.0198995 0.0  -0.348179 0.00144191 0.0  1.23251 -0.0308386 0.0  1.2272 -0.0282751 0.0  0.0128069 -0.111012 0.0  0.0541186 -0.0819927 0.0  0.182055 -0.0254555 0.0  0.173769 -0.0243721 0.0  -0.0481459 0.00163609 0.0  0.182207 0.0130276 0.0  0.192913 0.0124588 0.0  0.0466911 0.0758436 0.0  0.47942 0.21677 0.0  0.255434 0.226327 0.0  0.228149 0.297747 0.0  0.206867 0.280627 0.0  0.202673 0.254983 0.0  0.205844 0.218421 0.0  0.211557 0.16595 0.0  0.217542 0.102254 0.0  0.231605 0.0267116 0.0  0.23622 -0.0588373 0.0  0.290759 -0.165736 0.0  0.490958 -0.177973 0.0  0.269194 -0.218513 0.0  0.238144 -0.312176 0.0  0.214986 -0.325675 0.0  0.210716 -0.339233 0.0  0.210905 -0.321172 0.0  0.213424 -0.278774 0.0  0.216414 -0.21662 0.0  0.225904 -0.134268 0.0  0.224852 -0.0274673 0.0  0.271161 0.111902 0.0
            </DataArray>
         </PointData>
      </Piece>
   </UnstructuredGrid>
</VTKFile>
