<?xml version="1.0"?>
<VTKFile type="UnstructuredGrid" version="0.1" byte_order="LittleEndian">
   <UnstructuredGrid>
      <Piece NumberOfPoints="36" NumberOfCells="0" >
         <Points>
            <DataArray type="Float64" Name="Position" NumberOfComponents="3" format="ascii">
               0  -0.01  0
               0  -0.00666667  0
               0  -0.00333333  0
               0  0  0
               0  0.00333333  0
               0  0.00666667  0
               0  0.01  0
               0.2  -0.01  0
               0.2  -0.00666667  0
               0.2  -0.00333333  0
               0.2  0  0
               0.2  0.00333333  0
               0.2  0.00666667  0
               0.2  0.01  0
               0.0166667  -0.01  0
               0.0333333  -0.01  0
               0.05  -0.01  0
               0.0666667  -0.01  0
               0.0833333  -0.01  0
               0.1  -0.01  0
               0.116667  -0.01  0
               0.133333  -0.01  0
               0.15  -0.01  0
               0.166667  -0.01  0
               0.183333  -0.01  0
               0.0166667  0.01  0
               0.0333333  0.01  0
               0.05  0.01  0
               0.0666667  0.01  0
               0.0833333  0.01  0
               0.1  0.01  0
               0.116667  0.01  0
               0.133333  0.01  0
               0.15  0.01  0
               0.166667  0.01  0
               0.183333  0.01  0
            </DataArray>
         </Points>

         <Cells>
            <DataArray type="Int32" Name="connectivity" NumberOfComponents="1" format="ascii">

            </DataArray>
            <DataArray type="Int32" Name="offsets" NumberOfComponents="1" format="ascii">

            </DataArray>
            <DataArray type="UInt8"  Name="types" NumberOfComponents="1" format="ascii">

            </DataArray>
         </Cells>
         <PointData Scalars="Rank " Vectors="Displacement Force ">
            <DataArray type="UInt32" Name="Rank" NumberOfComponents="1" format="ascii">
               0 0 0 0 0 0 0 0 0 0 0 0 0 0 0 0 0 0 0 0 0 0 0 0 0 0 0 0 0 0 0 0 0 0 0 0
            </DataArray>
            <DataArray type="Float64" Name="Displacement" NumberOfComponents="3" format="ascii">
               7.86871e-05 3.09588e-07 0.0  5.24581e-05 2.06392e-07 0.0  2.6229e-05 1.03196e-07 0.0  0 0 0.0  -2.6229e-05 -1.03196e-07 0.0  -5.24581e-05 -2.06392e-07 0.0  -7.86871e-05 -3.09588e-07 0.0  7.24953e-05 0.00157405 0.0  4.62663e-05 0.00157395 0.0  2.00373e-05 0.00157384 0.0  -6.19175e-06 0.00157374 0.0  -3.24208e-05 0.00157364 0.0  -5.86498e-05 0.00157354 0.0  -8.48788e-05 0.00157343 0.0  7.81711e-05 0.000131455 0.0  7.76551e-05 0.0002626 0.0  7.71391e-05 0.000393745 0.0  7.66232e-05 0.00052489 0.0  7.61072e-05 0.000656035 0.0  7.55912e-05 0.00078718 0.0  7.50752e-05 0.000918325 0.0  7.45592e-05 0.00104947 0.0  7.40433e-05 0.00118062 0.0  7.35273e-05 0.00131176 0.0  7.30113e-05 0.00144291 0.0  -7.92031e-05 0.000130836 0.0  -7.9719e-05 0.000261981 0.0  -8.0235e-05 0.000393126 0.0  -8.0751e-05 0.000524271 0.0  -8.1267e-05 0.000655416 0.0  -8.1783e-05 0.000786561 0.0  -8.22989e-05 0.000917706 0.0  -8.28149e-05 0.00104885 0.0  -8.33309e-05 0.00118 0.0  -8.38469e-05 0.00131114 0.0  -8.43628e-05 0.00144229 0.0
            </DataArray>
            <DataArray type="Float64" Name="Force" NumberOfComponents="3" format="ascii">
               0.00451172 0.0349175 0.0  1.21073 0.0055328 0.0  1.22161 0.0192943 0.0  -0.350896 0.000311914 0.0  1.24691 -0.0276856 0.0  1.23612 -0.0383635 0.0  0.0178351 -0.179722 0.0  0.0468185 -0.0714318 0.0  0.190326 -0.0166592 0.0  0.181865 -0.0157266 0.0  -0.0501163 -0.000873055 0.0  0.185351 0.021967 0.0  0.193552 0.022039 0.0  0.051592 0.0860416 0.0  0.452509 -0.0672948 0.0  0.224814 0.0817485 0.0  0.202537 0.230993 0.0  0.186017 0.253495 0.0  0.185383 0.259897 0.0  0.189454 0.249888 0.0  0.195808 0.216368 0.0  0.202662 0.163418 0.0  0.216021 0.0916939 0.0  0.220522 -0.000954218 0.0  0.271749 -0.120893 0.0  0.508836 -0.429239 0.0  0.293911 -0.385266 0.0  0.265696 -0.431528 0.0  0.239684 -0.38254 0.0  0.231227 -0.338259 0.0  0.228398 -0.286915 0.0  0.229004 -0.224671 0.0  0.231461 -0.151738 0.0  0.240812 -0.065543 0.0  0.239602 0.0341387 0.0  0.286793 0.158809 0.0
            </DataArray>
         </PointData>
      </Piece>
   </UnstructuredGrid>
</VTKFile>
