# vtk DataFile Version 3.0
Triangulation generated with deal.II
ASCII
DATASET UNSTRUCTURED_GRID
POINTS 125 double
0.125 0 0
1.125 0 0
0.125 1 0
1.125 1 0
0.125 0 1
1.125 0 1
0.125 1 1
1.125 1 1
0.625 0 0
0.125 0.5 0
0.125 0 0.5
1.125 0.5 0
1.125 0 0.5
0.625 1 0
0.125 1 0.5
1.125 1 0.5
0.625 0 1
0.125 0.5 1
1.125 0.5 1
0.625 1 1
0.625 0 0.5
0.625 0.5 0
0.125 0.5 0.5
1.125 0.5 0.5
0.625 1 0.5
0.625 0.5 1
0.625 0.5 0.5
0.375 0 0
0.875 0 0
0.125 0.25 0
0.125 0.75 0
0.125 0 0.25
0.125 0 0.75
1.125 0.25 0
1.125 0.75 0
1.125 0 0.25
1.125 0 0.75
0.375 1 0
0.875 1 0
0.125 1 0.25
0.125 1 0.75
1.125 1 0.25
1.125 1 0.75
0.375 0 1
0.875 0 1
0.125 0.25 1
0.125 0.75 1
1.125 0.25 1
1.125 0.75 1
0.375 1 1
0.875 1 1
0.375 0 0.5
0.875 0 0.5
0.625 0 0.25
0.625 0 0.75
0.625 0.25 0
0.625 0.75 0
0.375 0.5 0
0.875 0.5 0
0.125 0.5 0.25
0.125 0.5 0.75
0.125 0.25 0.5
0.125 0.75 0.5
1.125 0.5 0.25
1.125 0.5 0.75
1.125 0.25 0.5
1.125 0.75 0.5
0.375 1 0.5
0.875 1 0.5
0.625 1 0.25
0.625 1 0.75
0.625 0.25 1
0.625 0.75 1
0.375 0.5 1
0.875 0.5 1
0.625 0.5 0.75
0.625 0.5 0.25
0.875 0.5 0.5
0.375 0.5 0.5
0.625 0.75 0.5
0.625 0.25 0.5
0.375 0 0.25
0.375 0 0.75
0.875 0 0.25
0.875 0 0.75
0.375 0.25 0
0.875 0.25 0
0.375 0.75 0
0.875 0.75 0
0.125 0.25 0.25
0.125 0.75 0.25
0.125 0.25 0.75
0.125 0.75 0.75
1.125 0.25 0.25
1.125 0.75 0.25
1.125 0.25 0.75
1.125 0.75 0.75
0.375 1 0.25
0.375 1 0.75
0.875 1 0.25
0.875 1 0.75
0.375 0.25 1
0.875 0.25 1
0.375 0.75 1
0.875 0.75 1
0.875 0.75 0.5
0.375 0.75 0.5
0.875 0.25 0.5
0.375 0.25 0.5
0.875 0.5 0.75
0.875 0.5 0.25
0.375 0.5 0.75
0.375 0.5 0.25
0.625 0.75 0.75
0.625 0.25 0.75
0.625 0.75 0.25
0.625 0.25 0.25
0.375 0.25 0.25
0.875 0.25 0.25
0.375 0.75 0.25
0.875 0.75 0.25
0.375 0.25 0.75
0.875 0.25 0.75
0.375 0.75 0.75
0.875 0.75 0.75

CELLS 64 576
8 0 27 85 29 31 81 117 89
8 27 8 55 85 81 53 116 117
8 29 85 57 9 89 117 112 59
8 85 55 21 57 117 116 76 112
8 31 81 117 89 10 51 108 61
8 81 53 116 117 51 20 80 108
8 89 117 112 59 61 108 78 22
8 117 116 76 112 108 80 26 78
8 8 28 86 55 53 83 118 116
8 28 1 33 86 83 35 93 118
8 55 86 58 21 116 118 110 76
8 86 33 11 58 118 93 63 110
8 53 83 118 116 20 52 107 80
8 83 35 93 118 52 12 65 107
8 116 118 110 76 80 107 77 26
8 118 93 63 110 107 65 23 77
8 9 57 87 30 59 112 119 90
8 57 21 56 87 112 76 115 119
8 30 87 37 2 90 119 97 39
8 87 56 13 37 119 115 69 97
8 59 112 119 90 22 78 106 62
8 112 76 115 119 78 26 79 106
8 90 119 97 39 62 106 67 14
8 119 115 69 97 106 79 24 67
8 21 58 88 56 76 110 120 115
8 58 11 34 88 110 63 94 120
8 56 88 38 13 115 120 99 69
8 88 34 3 38 120 94 41 99
8 76 110 120 115 26 77 105 79
8 110 63 94 120 77 23 66 105
8 115 120 99 69 79 105 68 24
8 120 94 41 99 105 66 15 68
8 10 51 108 61 32 82 121 91
8 51 20 80 108 82 54 114 121
8 61 108 78 22 91 121 111 60
8 108 80 26 78 121 114 75 111
8 32 82 121 91 4 43 101 45
8 82 54 114 121 43 16 71 101
8 91 121 111 60 45 101 73 17
8 121 114 75 111 101 71 25 73
8 20 52 107 80 54 84 122 114
8 52 12 65 107 84 36 95 122
8 80 107 77 26 114 122 109 75
8 107 65 23 77 122 95 64 109
8 54 84 122 114 16 44 102 71
8 84 36 95 122 44 5 47 102
8 114 122 109 75 71 102 74 25
8 122 95 64 109 102 47 18 74
8 22 78 106 62 60 111 123 92
8 78 26 79 106 111 75 113 123
8 62 106 67 14 92 123 98 40
8 106 79 24 67 123 113 70 98
8 60 111 123 92 17 73 103 46
8 111 75 113 123 73 25 72 103
8 92 123 98 40 46 103 49 6
8 123 113 70 98 103 72 19 49
8 26 77 105 79 75 109 124 113
8 77 23 66 105 109 64 96 124
8 79 105 68 24 113 124 100 70
8 105 66 15 68 124 96 42 100
8 75 109 124 113 25 74 104 72
8 109 64 96 124 74 18 48 104
8 113 124 100 70 72 104 50 19
8 124 96 42 100 104 48 7 50

CELL_TYPES 64
12 12 12 12 12 12 12 12 12 12 12 12 12 12 12 12 12 12 12 12 12 12 12 12 12 12 12 12 12 12 12 12 12 12 12 12 12 12 12 12 12 12 12 12 12 12 12 12 12 12 12 12 12 12 12 12 12 12 12 12 12 12 12 12 



CELL_DATA 64
SCALARS MaterialID int 1
LOOKUP_TABLE default
0 0 0 0 0 0 0 0 0 0 0 0 0 0 0 0 0 0 0 0 0 0 0 0 0 0 0 0 0 0 0 0 0 0 0 0 0 0 0 0 0 0 0 0 0 0 0 0 0 0 0 0 0 0 0 0 0 0 0 0 0 0 0 0 



SCALARS ManifoldID int 1
LOOKUP_TABLE default
-1 -1 -1 -1 -1 -1 -1 -1 -1 -1 -1 -1 -1 -1 -1 -1 -1 -1 -1 -1 -1 -1 -1 -1 -1 -1 -1 -1 -1 -1 -1 -1 -1 -1 -1 -1 -1 -1 -1 -1 -1 -1 -1 -1 -1 -1 -1 -1 -1 -1 -1 -1 -1 -1 -1 -1 -1 -1 -1 -1 -1 -1 -1 -1 


