# vtk DataFile Version 3.0
Triangulation generated with deal.II
ASCII
DATASET UNSTRUCTURED_GRID
POINTS 4913 double
-1 -1 -1
1 -1 -1
-1 1 -1
1 1 -1
-1 -1 1
1 -1 1
-1 1 1
1 1 1
0 -1 -1
-1 0 -1
-1 -1 0
1 0 -1
1 -1 0
0 1 -1
-1 1 0
1 1 0
0 -1 1
-1 0 1
1 0 1
0 1 1
0 -1 0
0 0 -1
-1 0 0
1 0 0
0 1 0
0 0 1
0 0 0
-0.5 -1 -1
0.5 -1 -1
-1 -0.5 -1
-1 0.5 -1
-1 -1 -0.5
-1 -1 0.5
1 -0.5 -1
1 0.5 -1
1 -1 -0.5
1 -1 0.5
-0.5 1 -1
0.5 1 -1
-1 1 -0.5
-1 1 0.5
1 1 -0.5
1 1 0.5
-0.5 -1 1
0.5 -1 1
-1 -0.5 1
-1 0.5 1
1 -0.5 1
1 0.5 1
-0.5 1 1
0.5 1 1
-0.5 -1 0
0.5 -1 0
0 -1 -0.5
0 -1 0.5
0 -0.5 -1
0 0.5 -1
-0.5 0 -1
0.5 0 -1
-1 0 -0.5
-1 0 0.5
-1 -0.5 0
-1 0.5 0
1 0 -0.5
1 0 0.5
1 -0.5 0
1 0.5 0
-0.5 1 0
0.5 1 0
0 1 -0.5
0 1 0.5
0 -0.5 1
0 0.5 1
-0.5 0 1
0.5 0 1
0 0 0.5
0 0 -0.5
0.5 0 0
-0.5 0 0
0 0.5 0
0 -0.5 0
-0.5 -1 -0.5
-0.5 -1 0.5
0.5 -1 -0.5
0.5 -1 0.5
-0.5 -0.5 -1
0.5 -0.5 -1
-0.5 0.5 -1
0.5 0.5 -1
-1 -0.5 -0.5
-1 0.5 -0.5
-1 -0.5 0.5
-1 0.5 0.5
1 -0.5 -0.5
1 0.5 -0.5
1 -0.5 0.5
1 0.5 0.5
-0.5 1 -0.5
-0.5 1 0.5
0.5 1 -0.5
0.5 1 0.5
-0.5 -0.5 1
0.5 -0.5 1
-0.5 0.5 1
0.5 0.5 1
0.5 0.5 0
-0.5 0.5 0
0.5 -0.5 0
-0.5 -0.5 0
0.5 0 0.5
0.5 0 -0.5
-0.5 0 0.5
-0.5 0 -0.5
0 0.5 0.5
0 -0.5 0.5
0 0.5 -0.5
0 -0.5 -0.5
-0.5 -0.5 -0.5
0.5 -0.5 -0.5
-0.5 0.5 -0.5
0.5 0.5 -0.5
-0.5 -0.5 0.5
0.5 -0.5 0.5
-0.5 0.5 0.5
0.5 0.5 0.5
-0.75 -1 -1
-0.25 -1 -1
0.25 -1 -1
0.75 -1 -1
-1 -0.75 -1
-1 -0.25 -1
-1 0.25 -1
-1 0.75 -1
-1 -1 -0.75
-1 -1 -0.25
-1 -1 0.25
-1 -1 0.75
1 -0.75 -1
1 -0.25 -1
1 0.25 -1
1 0.75 -1
1 -1 -0.75
1 -1 -0.25
1 -1 0.25
1 -1 0.75
-0.75 1 -1
-0.25 1 -1
0.25 1 -1
0.75 1 -1
-1 1 -0.75
-1 1 -0.25
-1 1 0.25
-1 1 0.75
1 1 -0.75
1 1 -0.25
1 1 0.25
1 1 0.75
-0.75 -1 1
-0.25 -1 1
0.25 -1 1
0.75 -1 1
-1 -0.75 1
-1 -0.25 1
-1 0.25 1
-1 0.75 1
1 -0.75 1
1 -0.25 1
1 0.25 1
1 0.75 1
-0.75 1 1
-0.25 1 1
0.25 1 1
0.75 1 1
-0.75 -1 0
-0.25 -1 0
0.25 -1 0
0.75 -1 0
0 -1 -0.75
0 -1 -0.25
0 -1 0.25
0 -1 0.75
0 -0.75 -1
0 -0.25 -1
0 0.25 -1
0 0.75 -1
-0.75 0 -1
-0.25 0 -1
0.25 0 -1
0.75 0 -1
-1 0 -0.75
-1 0 -0.25
-1 0 0.25
-1 0 0.75
-1 -0.75 0
-1 -0.25 0
-1 0.25 0
-1 0.75 0
1 0 -0.75
1 0 -0.25
1 0 0.25
1 0 0.75
1 -0.75 0
1 -0.25 0
1 0.25 0
1 0.75 0
-0.75 1 0
-0.25 1 0
0.25 1 0
0.75 1 0
0 1 -0.75
0 1 -0.25
0 1 0.25
0 1 0.75
0 -0.75 1
0 -0.25 1
0 0.25 1
0 0.75 1
-0.75 0 1
-0.25 0 1
0.25 0 1
0.75 0 1
0 0 0.25
0 0 0.75
0 0 -0.75
0 0 -0.25
0.25 0 0
0.75 0 0
-0.75 0 0
-0.25 0 0
0 0.25 0
0 0.75 0
0 -0.75 0
0 -0.25 0
-0.75 -1 -0.5
-0.25 -1 -0.5
-0.5 -1 -0.75
-0.5 -1 -0.25
-0.75 -1 0.5
-0.25 -1 0.5
-0.5 -1 0.25
-0.5 -1 0.75
0.25 -1 -0.5
0.75 -1 -0.5
0.5 -1 -0.75
0.5 -1 -0.25
0.25 -1 0.5
0.75 -1 0.5
0.5 -1 0.25
0.5 -1 0.75
-0.5 -0.75 -1
-0.5 -0.25 -1
-0.75 -0.5 -1
-0.25 -0.5 -1
0.5 -0.75 -1
0.5 -0.25 -1
0.25 -0.5 -1
0.75 -0.5 -1
-0.5 0.25 -1
-0.5 0.75 -1
-0.75 0.5 -1
-0.25 0.5 -1
0.5 0.25 -1
0.5 0.75 -1
0.25 0.5 -1
0.75 0.5 -1
-1 -0.5 -0.75
-1 -0.5 -0.25
-1 -0.75 -0.5
-1 -0.25 -0.5
-1 0.5 -0.75
-1 0.5 -0.25
-1 0.25 -0.5
-1 0.75 -0.5
-1 -0.5 0.25
-1 -0.5 0.75
-1 -0.75 0.5
-1 -0.25 0.5
-1 0.5 0.25
-1 0.5 0.75
-1 0.25 0.5
-1 0.75 0.5
1 -0.5 -0.75
1 -0.5 -0.25
1 -0.75 -0.5
1 -0.25 -0.5
1 0.5 -0.75
1 0.5 -0.25
1 0.25 -0.5
1 0.75 -0.5
1 -0.5 0.25
1 -0.5 0.75
1 -0.75 0.5
1 -0.25 0.5
1 0.5 0.25
1 0.5 0.75
1 0.25 0.5
1 0.75 0.5
-0.75 1 -0.5
-0.25 1 -0.5
-0.5 1 -0.75
-0.5 1 -0.25
-0.75 1 0.5
-0.25 1 0.5
-0.5 1 0.25
-0.5 1 0.75
0.25 1 -0.5
0.75 1 -0.5
0.5 1 -0.75
0.5 1 -0.25
0.25 1 0.5
0.75 1 0.5
0.5 1 0.25
0.5 1 0.75
-0.5 -0.75 1
-0.5 -0.25 1
-0.75 -0.5 1
-0.25 -0.5 1
0.5 -0.75 1
0.5 -0.25 1
0.25 -0.5 1
0.75 -0.5 1
-0.5 0.25 1
-0.5 0.75 1
-0.75 0.5 1
-0.25 0.5 1
0.5 0.25 1
0.5 0.75 1
0.25 0.5 1
0.75 0.5 1
0.5 0.25 0
0.5 0.75 0
0.25 0.5 0
0.75 0.5 0
-0.5 0.25 0
-0.5 0.75 0
-0.75 0.5 0
-0.25 0.5 0
0.5 -0.75 0
0.5 -0.25 0
0.25 -0.5 0
0.75 -0.5 0
-0.5 -0.75 0
-0.5 -0.25 0
-0.75 -0.5 0
-0.25 -0.5 0
0.25 0 0.5
0.75 0 0.5
0.5 0 0.25
0.5 0 0.75
0.25 0 -0.5
0.75 0 -0.5
0.5 0 -0.75
0.5 0 -0.25
-0.75 0 0.5
-0.25 0 0.5
-0.5 0 0.25
-0.5 0 0.75
-0.75 0 -0.5
-0.25 0 -0.5
-0.5 0 -0.75
-0.5 0 -0.25
0 0.5 0.25
0 0.5 0.75
0 0.25 0.5
0 0.75 0.5
0 -0.5 0.25
0 -0.5 0.75
0 -0.75 0.5
0 -0.25 0.5
0 0.5 -0.75
0 0.5 -0.25
0 0.25 -0.5
0 0.75 -0.5
0 -0.5 -0.75
0 -0.5 -0.25
0 -0.75 -0.5
0 -0.25 -0.5
0.5 0.5 0.75
0.5 0.5 0.25
0.75 0.5 0.5
0.25 0.5 0.5
0.5 0.75 0.5
0.5 0.25 0.5
-0.5 0.5 0.75
-0.5 0.5 0.25
-0.25 0.5 0.5
-0.75 0.5 0.5
-0.5 0.75 0.5
-0.5 0.25 0.5
0.5 -0.5 0.75
0.5 -0.5 0.25
0.75 -0.5 0.5
0.25 -0.5 0.5
0.5 -0.25 0.5
0.5 -0.75 0.5
-0.5 -0.5 0.75
-0.5 -0.5 0.25
-0.25 -0.5 0.5
-0.75 -0.5 0.5
-0.5 -0.25 0.5
-0.5 -0.75 0.5
0.5 0.5 -0.25
0.5 0.5 -0.75
0.75 0.5 -0.5
0.25 0.5 -0.5
0.5 0.75 -0.5
0.5 0.25 -0.5
-0.5 0.5 -0.25
-0.5 0.5 -0.75
-0.25 0.5 -0.5
-0.75 0.5 -0.5
-0.5 0.75 -0.5
-0.5 0.25 -0.5
0.5 -0.5 -0.25
0.5 -0.5 -0.75
0.75 -0.5 -0.5
0.25 -0.5 -0.5
0.5 -0.25 -0.5
0.5 -0.75 -0.5
-0.5 -0.5 -0.25
-0.5 -0.5 -0.75
-0.25 -0.5 -0.5
-0.75 -0.5 -0.5
-0.5 -0.25 -0.5
-0.5 -0.75 -0.5
-0.75 -1 -0.75
-0.75 -1 -0.25
-0.25 -1 -0.75
-0.25 -1 -0.25
-0.75 -1 0.25
-0.75 -1 0.75
-0.25 -1 0.25
-0.25 -1 0.75
0.25 -1 -0.75
0.25 -1 -0.25
0.75 -1 -0.75
0.75 -1 -0.25
0.25 -1 0.25
0.25 -1 0.75
0.75 -1 0.25
0.75 -1 0.75
-0.75 -0.75 -1
-0.25 -0.75 -1
-0.75 -0.25 -1
-0.25 -0.25 -1
0.25 -0.75 -1
0.75 -0.75 -1
0.25 -0.25 -1
0.75 -0.25 -1
-0.75 0.25 -1
-0.25 0.25 -1
-0.75 0.75 -1
-0.25 0.75 -1
0.25 0.25 -1
0.75 0.25 -1
0.25 0.75 -1
0.75 0.75 -1
-1 -0.75 -0.75
-1 -0.25 -0.75
-1 -0.75 -0.25
-1 -0.25 -0.25
-1 0.25 -0.75
-1 0.75 -0.75
-1 0.25 -0.25
-1 0.75 -0.25
-1 -0.75 0.25
-1 -0.25 0.25
-1 -0.75 0.75
-1 -0.25 0.75
-1 0.25 0.25
-1 0.75 0.25
-1 0.25 0.75
-1 0.75 0.75
1 -0.75 -0.75
1 -0.25 -0.75
1 -0.75 -0.25
1 -0.25 -0.25
1 0.25 -0.75
1 0.75 -0.75
1 0.25 -0.25
1 0.75 -0.25
1 -0.75 0.25
1 -0.25 0.25
1 -0.75 0.75
1 -0.25 0.75
1 0.25 0.25
1 0.75 0.25
1 0.25 0.75
1 0.75 0.75
-0.75 1 -0.75
-0.75 1 -0.25
-0.25 1 -0.75
-0.25 1 -0.25
-0.75 1 0.25
-0.75 1 0.75
-0.25 1 0.25
-0.25 1 0.75
0.25 1 -0.75
0.25 1 -0.25
0.75 1 -0.75
0.75 1 -0.25
0.25 1 0.25
0.25 1 0.75
0.75 1 0.25
0.75 1 0.75
-0.75 -0.75 1
-0.25 -0.75 1
-0.75 -0.25 1
-0.25 -0.25 1
0.25 -0.75 1
0.75 -0.75 1
0.25 -0.25 1
0.75 -0.25 1
-0.75 0.25 1
-0.25 0.25 1
-0.75 0.75 1
-0.25 0.75 1
0.25 0.25 1
0.75 0.25 1
0.25 0.75 1
0.75 0.75 1
0.25 0.25 0
0.75 0.25 0
0.25 0.75 0
0.75 0.75 0
-0.75 0.25 0
-0.25 0.25 0
-0.75 0.75 0
-0.25 0.75 0
0.25 -0.75 0
0.75 -0.75 0
0.25 -0.25 0
0.75 -0.25 0
-0.75 -0.75 0
-0.25 -0.75 0
-0.75 -0.25 0
-0.25 -0.25 0
0.25 0 0.25
0.25 0 0.75
0.75 0 0.25
0.75 0 0.75
0.25 0 -0.75
0.25 0 -0.25
0.75 0 -0.75
0.75 0 -0.25
-0.75 0 0.25
-0.75 0 0.75
-0.25 0 0.25
-0.25 0 0.75
-0.75 0 -0.75
-0.75 0 -0.25
-0.25 0 -0.75
-0.25 0 -0.25
0 0.25 0.25
0 0.75 0.25
0 0.25 0.75
0 0.75 0.75
0 -0.75 0.25
0 -0.25 0.25
0 -0.75 0.75
0 -0.25 0.75
0 0.25 -0.75
0 0.75 -0.75
0 0.25 -0.25
0 0.75 -0.25
0 -0.75 -0.75
0 -0.25 -0.75
0 -0.75 -0.25
0 -0.25 -0.25
0.75 0.75 0.5
0.25 0.75 0.5
0.75 0.25 0.5
0.25 0.25 0.5
0.75 0.5 0.75
0.75 0.5 0.25
0.25 0.5 0.75
0.25 0.5 0.25
0.5 0.75 0.75
0.5 0.25 0.75
0.5 0.75 0.25
0.5 0.25 0.25
-0.25 0.75 0.5
-0.75 0.75 0.5
-0.25 0.25 0.5
-0.75 0.25 0.5
-0.25 0.5 0.75
-0.25 0.5 0.25
-0.75 0.5 0.75
-0.75 0.5 0.25
-0.5 0.75 0.75
-0.5 0.25 0.75
-0.5 0.75 0.25
-0.5 0.25 0.25
0.75 -0.25 0.5
0.25 -0.25 0.5
0.75 -0.75 0.5
0.25 -0.75 0.5
0.75 -0.5 0.75
0.75 -0.5 0.25
0.25 -0.5 0.75
0.25 -0.5 0.25
0.5 -0.25 0.75
0.5 -0.75 0.75
0.5 -0.25 0.25
0.5 -0.75 0.25
-0.25 -0.25 0.5
-0.75 -0.25 0.5
-0.25 -0.75 0.5
-0.75 -0.75 0.5
-0.25 -0.5 0.75
-0.25 -0.5 0.25
-0.75 -0.5 0.75
-0.75 -0.5 0.25
-0.5 -0.25 0.75
-0.5 -0.75 0.75
-0.5 -0.25 0.25
-0.5 -0.75 0.25
0.75 0.75 -0.5
0.25 0.75 -0.5
0.75 0.25 -0.5
0.25 0.25 -0.5
0.75 0.5 -0.25
0.75 0.5 -0.75
0.25 0.5 -0.25
0.25 0.5 -0.75
0.5 0.75 -0.25
0.5 0.25 -0.25
0.5 0.75 -0.75
0.5 0.25 -0.75
-0.25 0.75 -0.5
-0.75 0.75 -0.5
-0.25 0.25 -0.5
-0.75 0.25 -0.5
-0.25 0.5 -0.25
-0.25 0.5 -0.75
-0.75 0.5 -0.25
-0.75 0.5 -0.75
-0.5 0.75 -0.25
-0.5 0.25 -0.25
-0.5 0.75 -0.75
-0.5 0.25 -0.75
0.75 -0.25 -0.5
0.25 -0.25 -0.5
0.75 -0.75 -0.5
0.25 -0.75 -0.5
0.75 -0.5 -0.25
0.75 -0.5 -0.75
0.25 -0.5 -0.25
0.25 -0.5 -0.75
0.5 -0.25 -0.25
0.5 -0.75 -0.25
0.5 -0.25 -0.75
0.5 -0.75 -0.75
-0.25 -0.25 -0.5
-0.75 -0.25 -0.5
-0.25 -0.75 -0.5
-0.75 -0.75 -0.5
-0.25 -0.5 -0.25
-0.25 -0.5 -0.75
-0.75 -0.5 -0.25
-0.75 -0.5 -0.75
-0.5 -0.25 -0.25
-0.5 -0.75 -0.25
-0.5 -0.25 -0.75
-0.5 -0.75 -0.75
-0.75 -0.75 -0.75
-0.25 -0.75 -0.75
-0.75 -0.25 -0.75
-0.25 -0.25 -0.75
-0.75 -0.75 -0.25
-0.25 -0.75 -0.25
-0.75 -0.25 -0.25
-0.25 -0.25 -0.25
0.25 -0.75 -0.75
0.75 -0.75 -0.75
0.25 -0.25 -0.75
0.75 -0.25 -0.75
0.25 -0.75 -0.25
0.75 -0.75 -0.25
0.25 -0.25 -0.25
0.75 -0.25 -0.25
-0.75 0.25 -0.75
-0.25 0.25 -0.75
-0.75 0.75 -0.75
-0.25 0.75 -0.75
-0.75 0.25 -0.25
-0.25 0.25 -0.25
-0.75 0.75 -0.25
-0.25 0.75 -0.25
0.25 0.25 -0.75
0.75 0.25 -0.75
0.25 0.75 -0.75
0.75 0.75 -0.75
0.25 0.25 -0.25
0.75 0.25 -0.25
0.25 0.75 -0.25
0.75 0.75 -0.25
-0.75 -0.75 0.25
-0.25 -0.75 0.25
-0.75 -0.25 0.25
-0.25 -0.25 0.25
-0.75 -0.75 0.75
-0.25 -0.75 0.75
-0.75 -0.25 0.75
-0.25 -0.25 0.75
0.25 -0.75 0.25
0.75 -0.75 0.25
0.25 -0.25 0.25
0.75 -0.25 0.25
0.25 -0.75 0.75
0.75 -0.75 0.75
0.25 -0.25 0.75
0.75 -0.25 0.75
-0.75 0.25 0.25
-0.25 0.25 0.25
-0.75 0.75 0.25
-0.25 0.75 0.25
-0.75 0.25 0.75
-0.25 0.25 0.75
-0.75 0.75 0.75
-0.25 0.75 0.75
0.25 0.25 0.25
0.75 0.25 0.25
0.25 0.75 0.25
0.75 0.75 0.25
0.25 0.25 0.75
0.75 0.25 0.75
0.25 0.75 0.75
0.75 0.75 0.75
-0.875 -1 -1
-0.625 -1 -1
-0.375 -1 -1
-0.125 -1 -1
0.125 -1 -1
0.375 -1 -1
0.625 -1 -1
0.875 -1 -1
-1 -0.875 -1
-1 -0.625 -1
-1 -0.375 -1
-1 -0.125 -1
-1 0.125 -1
-1 0.375 -1
-1 0.625 -1
-1 0.875 -1
-1 -1 -0.875
-1 -1 -0.625
-1 -1 -0.375
-1 -1 -0.125
-1 -1 0.125
-1 -1 0.375
-1 -1 0.625
-1 -1 0.875
1 -0.875 -1
1 -0.625 -1
1 -0.375 -1
1 -0.125 -1
1 0.125 -1
1 0.375 -1
1 0.625 -1
1 0.875 -1
1 -1 -0.875
1 -1 -0.625
1 -1 -0.375
1 -1 -0.125
1 -1 0.125
1 -1 0.375
1 -1 0.625
1 -1 0.875
-0.875 1 -1
-0.625 1 -1
-0.375 1 -1
-0.125 1 -1
0.125 1 -1
0.375 1 -1
0.625 1 -1
0.875 1 -1
-1 1 -0.875
-1 1 -0.625
-1 1 -0.375
-1 1 -0.125
-1 1 0.125
-1 1 0.375
[...]
CELL_DATA 4096
SCALARS MaterialID int 1
LOOKUP_TABLE default
0 0 0 0 0 0 0 0 0 0 0 0 0 0 0 0 0 0 0 0 0 0 0 0 0 0 0 0 0 0 0 0 0 0 0 0 0 0 0 0 0 0 0 0 0 0 0 0 0 0 0 0 0 0 0 0 0 0 0 0 0 0 0 0 0 0 0 0 0 0 0 0 0 0 0 0 0 0 0 0 0 0 0 0 0 0 0 0 0 0 0 0 0 0 0 0 0 0 0 0 0 0 0 0 0 0 0 0 0 0 0 0 0 0 0 0 0 0 0 0 0 0 0 0 0 0 0 0 0 0 0 0 0 0 0 0 0 0 0 0 0 0 0 0 0 0 0 0 0 0 0 0 0 0 0 0 0 0 0 0 0 0 0 0 0 0 0 0 0 0 0 0 0 0 0 0 0 0 0 0 0 0 0 0 0 0 0 0 0 0 0 0 0 0 0 0 0 0 0 0 0 0 0 0 0 0 0 0 0 0 0 0 0 0 0 0 0 0 0 0 0 0 0 0 0 0 0 0 0 0 0 0 0 0 0 0 0 0 0 0 0 0 0 0 0 0 0 0 0 0 0 0 0 0 0 0 0 0 0 0 0 0 0 0 0 0 0 0 0 0 0 0 0 0 0 0 0 0 0 0 0 0 0 0 0 0 0 0 0 0 0 0 0 0 0 0 0 0 0 0 0 0 0 0 0 0 0 0 0 0 0 0 0 0 0 0 0 0 0 0 0 0 0 0 0 0 0 0 0 0 0 0 0 0 0 0 0 0 0 0 0 0 0 0 0 0 0 0 0 0 0 0 0 0 0 0 0 0 0 0 0 0 0 0 0 0 0 0 0 0 0 0 0 0 0 0 0 0 0 0 0 0 0 0 0 0 0 0 0 0 0 0 0 0 0 0 0 0 0 0 0 0 0 0 0 0 0 0 0 0 0 0 0 0 0 0 0 0 0 0 0 0 0 0 0 0 0 0 0 0 0 0 0 0 0 0 0 0 0 0 0 0 0 0 0 0 0 0 0 0 0 0 0 0 0 0 0 0 0 0 0 0 0 0 0 0 0 0 0 0 0 0 0 0 0 0 0 0 0 0 0 0 0 0 0 0 0 0 0 0 0 0 0 0 0 0 0 0 0 0 0 0 0 0 0 0 0 0 0 0 0 0 0 0 0 0 0 0 0 0 0 0 0 0 0 0 0 0 0 0 0 0 0 0 0 0 0 0 0 0 0 0 0 0 0 0 0 0 0 0 0 0 0 0 0 0 0 0 0 0 0 0 0 0 0 0 0 0 0 0 0 0 0 0 0 0 0 0 0 0 0 0 0 0 0 0 0 0 0 0 0 0 0 0 0 0 0 0 0 0 0 0 0 0 0 0 0 0 0 0 0 0 0 0 0 0 0 0 0 0 0 0 0 0 0 0 0 0 0 0 0 0 0 0 0 0 0 0 0 0 0 0 0 0 0 0 0 0 0 0 0 0 0 0 0 0 0 0 0 0 0 0 0 0 0 0 0 0 0 0 0 0 0 0 0 0 0 0 0 0 0 0 0 0 0 0 0 0 0 0 0 0 0 0 0 0 0 0 0 0 0 0 0 0 0 0 0 0 0 0 0 0 0 0 0 0 0 0 0 0 0 0 0 0 0 0 0 0 0 0 0 0 0 0 0 0 0 0 0 0 0 0 0 0 0 0 0 0 0 0 0 0 0 0 0 0 0 0 0 0 0 0 0 0 0 0 0 0 0 0 0 0 0 0 0 0 0 0 0 0 0 0 0 0 0 0 0 0 0 0 0 0 0 0 0 0 0 0 0 0 0 0 0 0 0 0 0 0 0 0 0 0 0 0 0 0 0 0 0 0 0 0 0 0 0 0 0 0 0 0 0 0 0 0 0 0 0 0 0 0 0 0 0 0 0 0 0 0 0 0 0 0 0 0 0 0 0 0 0 0 0 0 0 0 0 0 0 0 0 0 0 0 0 0 0 0 0 0 0 0 0 0 0 0 0 0 0 0 0 0 0 0 0 0 0 0 0 0 0 0 0 0 0 0 0 0 0 0 0 0 0 0 0 0 0 0 0 0 0 0 0 0 0 0 0 0 0 0 0 0 0 0 0 0 0 0 0 0 0 0 0 0 0 0 0 0 0 0 0 0 0 0 0 0 0 0 0 0 0 0 0 0 0 0 0 0 0 0 0 0 0 0 0 0 0 0 0 0 0 0 0 0 0 0 0 0 0 0 0 0 0 0 0 0 0 0 0 0 0 0 0 0 0 0 0 0 0 0 0 0 0 0 0 0 0 0 0 0 0 0 0 0 0 0 0 0 0 0 0 0 0 0 0 0 0 0 0 0 0 0 0 0 0 0 0 0 0 0 0 0 0 0 0 0 0 0 0 0 0 0 0 0 0 0 0 0 0 0 0 0 0 0 0 0 0 0 0 0 0 0 0 0 0 0 0 0 0 0 0 0 0 0 0 0 0 0 0 0 0 0 0 0 0 0 0 0 0 0 0 0 0 0 0 0 0 0 0 0 0 0 0 0 0 0 0 0 0 0 0 0 0 0 0 0 0 0 0 0 0 0 0 0 0 0 0 0 0 0 0 0 0 0 0 0 0 0 0 0 0 0 0 0 0 0 0 0 0 0 0 0 0 0 0 0 0 0 0 0 0 0 0 0 0 0 0 0 0 0 0 0 0 0 0 0 0 0 0 0 0 0 0 0 0 0 0 0 0 0 0 0 0 0 0 0 0 0 0 0 0 0 0 0 0 0 0 0 0 0 0 0 0 0 0 0 0 0 0 0 0 0 0 0 0 0 0 0 0 0 0 0 0 0 0 0 0 0 0 0 0 0 0 0 0 0 0 0 0 0 0 0 0 0 0 0 0 0 0 0 0 0 0 0 0 0 0 0 0 0 0 0 0 0 0 0 0 0 0 0 0 0 0 0 0 0 0 0 0 0 0 0 0 0 0 0 0 0 0 0 0 0 0 0 0 0 0 0 0 0 0 0 0 0 0 0 0 0 0 0 0 0 0 0 0 0 0 0 0 0 0 0 0 0 0 0 0 0 0 0 0 0 0 0 0 0 0 0 0 0 0 0 0 0 0 0 0 0 0 0 0 0 0 0 0 0 0 0 0 0 0 0 0 0 0 0 0 0 0 0 0 0 0 0 0 0 0 0 0 0 0 0 0 0 0 0 0 0 0 0 0 0 0 0 0 0 0 0 0 0 0 0 0 0 0 0 0 0 0 0 0 0 0 0 0 0 0 0 0 0 0 0 0 0 0 0 0 0 0 0 0 0 0 0 0 0 0 0 0 0 0 0 0 0 0 0 0 0 0 0 0 0 0 0 0 0 0 0 0 0 0 0 0 0 0 0 0 0 0 0 0 0 0 0 0 0 0 0 0 0 0 0 0 0 0 0 0 0 0 0 0 0 0 0 0 0 0 0 0 0 0 0 0 0 0 0 0 0 0 0 0 0 0 0 0 0 0 0 0 0 0 0 0 0 0 0 0 0 0 0 0 0 0 0 0 0 0 0 0 0 0 0 0 0 0 0 0 0 0 0 0 0 0 0 0 0 0 0 0 0 0 0 0 0 0 0 0 0 0 0 0 0 0 0 0 0 0 0 0 0 0 0 0 0 0 0 0 0 0 0 0 0 0 0 0 0 0 0 0 0 0 0 0 0 0 0 0 0 0 0 0 0 0 0 0 0 0 0 0 0 0 0 0 0 0 0 0 0 0 0 0 0 0 0 0 0 0 0 0 0 0 0 0 0 0 0 0 0 0 0 0 0 0 0 0 0 0 0 0 0 0 0 0 0 0 0 0 0 0 0 0 0 0 0 0 0 0 0 0 0 0 0 0 0 0 0 0 0 0 0 0 0 0 0 0 0 0 0 0 0 0 0 0 0 0 0 0 0 0 0 0 0 0 0 0 0 0 0 0 0 0 0 0 0 0 0 0 0 0 0 0 0 0 0 0 0 0 0 0 0 0 0 0 0 0 0 0 0 0 0 0 0 0 0 0 0 0 0 0 0 0 0 0 0 0 0 0 0 0 0 0 0 0 0 0 0 0 0 0 0 0 0 0 0 0 0 0 0 0 0 0 0 0 0 0 0 0 0 0 0 0 0 0 0 0 0 0 0 0 0 0 0 0 0 0 0 0 0 0 0 0 0 0 0 0 0 0 0 0 0 0 0 0 0 0 0 0 0 0 0 0 0 0 0 0 0 0 0 0 0 0 0 0 0 0 0 0 0 0 0 0 0 0 0 0 0 0 0 0 0 0 0 0 0 0 0 0 0 0 0 0 0 0 0 0 0 0 0 0 0 0 0 0 0 0 0 0 0 0 0 0 0 0 0 0 0 0 0 0 0 0 0 0 0 0 0 0 0 0 0 0 0 0 0 0 0 0 0 0 0 0 0 0 0 0 0 0 0 0 0 0 0 0 0 0 0 0 0 0 0 0 0 0 0 0 0 0 0 0 0 0 0 0 0 0 0 0 0 0 0 0 0 0 0 0 0 0 0 0 0 0 0 0 0 0 0 0 0 0 0 0 0 0 0 0 0 0 0 0 0 0 0 0 0 0 0 0 0 0 0 0 0 0 0 0 0 0 0 0 0 0 0 0 0 0 0 0 0 0 0 0 0 0 0 0 0 0 0 0 0 0 0 0 0 0 0 0 0 0 0 0 0 0 0 0 0 0 0 0 0 0 0 0 0 0 0 0 0 0 0 0 0 0 0 0 0 0 0 0 0 0 0 0 0 0 0 0 0 0 0 0 0 0 0 0 0 0 0 0 0 0 0 0 0 0 0 0 0 0 0 0 0 0 0 0 0 0 0 0 0 0 0 0 0 0 0 0 0 0 0 0 0 0 0 0 0 0 0 0 0 0 0 0 0 0 0 0 0 0 0 0 0 0 0 0 0 0 0 0 0 0 0 0 0 0 0 0 0 0 0 0 0 0 0 0 0 0 0 0 0 0 0 0 0 0 0 0 0 0 0 0 0 0 0 0 0 0 0 0 0 0 0 0 0 0 0 0 0 0 0 0 0 0 0 0 0 0 0 0 0 0 0 0 0 0 0 0 0 0 0 0 0 0 0 0 0 0 0 0 0 0 0 0 0 0 0 0 0 0 0 0 0 0 0 0 0 0 0 0 0 0 0 0 0 0 0 0 0 0 0 0 0 0 0 0 0 0 0 0 0 0 0 0 0 0 0 0 0 0 0 0 0 0 0 0 0 0 0 0 0 0 0 0 0 0 0 0 0 0 0 0 0 0 0 0 0 0 0 0 0 0 0 0 0 0 0 0 0 0 0 0 0 0 0 0 0 0 0 0 0 0 0 0 0 0 0 0 0 0 0 0 0 0 0 0 0 0 0 0 0 0 0 0 0 0 0 0 0 0 0 0 0 0 0 0 0 0 0 0 0 0 0 0 0 0 0 0 0 0 0 0 0 0 0 0 0 0 0 0 0 0 0 0 0 0 0 0 0 0 0 0 0 0 0 0 0 0 0 0 0 0 0 0 0 0 0 0 0 0 0 0 0 0 0 0 0 0 0 0 0 0 0 0 0 0 0 0 0 0 0 0 0 0 0 0 0 0 0 0 0 0 0 0 0 0 0 0 0 0 0 0 0 0 0 0 0 0 0 0 0 0 0 0 0 0 0 0 0 0 0 0 0 0 0 0 0 0 0 0 0 0 0 0 0 0 0 0 0 0 0 0 0 0 0 0 0 0 0 0 0 0 0 0 0 0 0 0 0 0 0 0 0 0 0 0 0 0 0 0 0 0 0 0 0 0 0 0 0 0 0 0 0 0 0 0 0 0 0 0 0 0 0 0 0 0 0 0 0 0 0 0 0 0 0 0 0 0 0 0 0 0 0 0 0 0 0 0 0 0 0 0 0 0 0 0 0 0 0 0 0 0 0 0 0 0 0 0 0 0 0 0 0 0 0 0 0 0 0 0 0 0 0 0 0 0 0 0 0 0 0 0 0 0 0 0 0 0 0 0 0 0 0 0 0 0 0 0 0 0 0 0 0 0 0 0 0 0 0 0 0 0 0 0 0 0 0 0 0 0 0 0 0 0 0 0 0 0 0 0 0 0 0 0 0 0 0 0 0 0 0 0 0 0 0 0 0 0 0 0 0 0 0 0 0 0 0 0 0 0 0 0 0 0 0 0 0 0 0 0 0 0 0 0 0 0 0 0 0 0 0 0 0 0 0 0 0 0 0 0 0 0 0 0 0 0 0 0 0 0 0 0 0 0 0 0 0 0 0 0 0 0 0 0 0 0 0 0 0 0 0 0 0 0 0 0 0 0 0 0 0 0 0 0 0 0 0 0 0 0 0 0 0 0 0 0 0 0 0 0 0 0 0 0 0 0 0 0 0 0 0 0 0 0 0 0 0 0 0 0 0 0 0 0 0 0 0 0 0 0 0 0 0 0 0 0 0 0 0 0 0 0 0 0 0 0 0 0 0 0 0 0 0 0 0 0 0 0 0 0 0 0 0 0 0 0 0 0 0 0 0 0 0 0 0 0 0 0 0 0 0 0 0 0 0 0 0 0 0 0 0 0 0 0 0 0 0 0 0 0 0 0 0 0 0 0 0 0 0 0 0 0 0 0 0 0 0 0 0 0 0 0 0 0 0 0 0 0 0 0 0 0 0 0 0 0 0 0 0 0 0 0 0 0 0 0 0 0 0 0 0 0 0 0 0 0 0 0 0 0 0 0 0 0 0 0 0 0 0 0 0 0 0 0 0 0 0 0 0 0 0 0 0 0 0 0 0 0 0 0 0 0 0 0 0 0 0 0 0 0 0 0 0 0 0 0 0 0 0 0 0 0 0 0 0 0 0 0 0 0 0 0 0 0 0 0 0 0 0 0 0 0 0 0 0 0 0 0 0 0 0 0 0 0 0 0 0 0 0 0 0 0 0 0 0 0 0 0 0 0 0 0 0 0 0 0 0 0 0 0 0 0 0 0 0 0 0 0 0 0 0 0 0 0 0 0 0 0 0 0 0 0 0 0 0 0 0 0 0 0 0 0 0 0 0 0 0 0 0 0 0 0 0 0 0 0 0 0 0 0 0 0 0 0 0 0 0 0 0 0 0 0 0 0 0 0 0 0 0 0 0 0 0 0 0 0 0 0 0 0 0 0 0 0 0 0 0 0 0 0 0 0 0 0 0 0 0 0 0 0 0 0 0 0 0 0 0 0 0 0 0 0 0 0 0 0 0 0 0 0 0 0 0 0 0 0 0 0 0 0 0 0 0 0 0 0 0 0 0 0 0 0 0 0 0 0 0 0 0 0 0 0 0 0 0 0 0 0 0 0 0 0 0 0 0 0 0 0 0 0 0 0 0 0 0 0 0 0 0 0 0 0 0 0 0 0 0 0 0 0 0 0 0 0 0 0 0 0 0 0 0 0 0 0 0 0 0 0 0 0 0 0 0 0 0 0 0 0 0 0 0 0 0 0 0 0 0 0 0 0 0 0 0 0 0 0 0 0 0 0 0 0 0 0 0 0 0 0 0 0 0 0 0 0 0 0 0 0 0 0 0 0 0 0 0 0 0 0 0 0 0 0 0 0 0 0 0 0 0 0 0 0 0 0 0 0 0 0 0 0 0 0 0 0 0 0 0 0 0 0 0 0 0 0 0 0 0 0 0 0 0 0 0 0 0 0 0 0 0 0 0 0 0 0 0 0 0 0 0 0 0 0 0 0 0 0 0 0 0 0 0 0 0 0 0 0 0 0 0 0 0 0 0 0 0 0 0 0 0 0 0 0 0 0 0 0 0 0 0 0 0 0 0 0 0 0 0 0 0 0 0 0 0 0 0 0 0 0 0 0 0 0 0 0 0 0 0 0 0 0 0 0 0 0 0 0 0 0 0 0 0 0 0 0 0 0 0 0 0 0 0 0 0 0 0 0 0 0 0 0 0 0 0 0 0 0 0 0 0 0 0 0 0 0 0 0 0 0 0 0 0 0 0 0 0 0 0 0 0 0 0 0 0 0 0 0 0 0 0 0 0 0 0 0 0 0 0 0 0 0 0 0 0 0 0 0 0 0 0 0 0 0 0 0 0 0 0 0 0 0 0 0 0 0 0 0 0 0 0 0 0 0 0 0 0 0 0 0 0 0 0 0 0 0 0 0 0 0 0 0 0 0 0 0 0 0 0 0 0 0 0 0 0 0 0 0 0 0 0 0 0 0 0 0 0 0 0 0 0 0 0 0 0 0 0 0 0 0 0 0 0 0 0 0 0 0 0 0 0 0 0 0 0 0 0 0 0 0 0 0 0 0 0 0 0 0 0 0 0 0 0 0 0 0 0 0 0 0 0 0 0 0 0 0 0 0 0 0 0 0 0 0 0 0 0 0 0 0 0 0 0 0 0 0 0 0 0 0 0 0 0 0 0 0 0 0 0 0 0 0 0 0 0 0 0 0 0 0 0 0 0 0 0 0 0 0 0 0 0 0 0 0 0 0 0 0 0 0 0 0 0 0 0 0 0 0 0 0 0 0 0 0 0 0 0 0 0 0 0 0 0 0 0 0 0 0 0 0 0 0 0 0 0 0 0 0 0 0 0 0 0 0 0 0 0 0 0 0 0 0 0 0 0 0 0 0 0 0 0 0 0 0 0 0 0 0 0 0 0 0 0 0 0 0 0 0 0 0 0 0 0 0 0 0 0 0 0 0 0 0 0 0 0 0 0 0 0 0 0 0 0 0 0 0 0 0 0 0 0 0 0 0 0 0 0 0 0 0 0 0 0 0 0 0 0 0 0 0 0 0 0 0 0 0 0 0 0 0 0 0 0 0 0 0 0 0 0 0 0 0 0 0 0 0 0 0 0 0 0 0 0 0 0 0 0 0 0 0 0 0 0 0 0 0 0 0 0 0 0 0 0 0 0 0 0 0 0 0 0 0 0 0 0 0 0 0 0 0 0 0 0 0 0 0 0 0 0 0 0 0 0 0 0 0 0 0 0 0 0 0 0 0 0 0 0 0 0 0 0 0 0 0 0 0 0 0 0 0 0 0 0 0 0 0 0 0 0 0 0 0 0 0 0 0 0 0 0 0 0 0 0 0 0 0 0 0 0 0 0 0 0 0 0 0 0 0 0 0 0 0 0 0 0 0 0 0 0 0 0 0 0 0 0 0 0 0 0 0 0 0 0 0 0 0 0 0 0 0 0 0 0 0 0 0 0 0 0 0 0 



SCALARS ManifoldID int 1
LOOKUP_TABLE default
-1 -1 -1 -1 -1 -1 -1 -1 -1 -1 -1 -1 -1 -1 -1 -1 -1 -1 -1 -1 -1 -1 -1 -1 -1 -1 -1 -1 -1 -1 -1 -1 -1 -1 -1 -1 -1 -1 -1 -1 -1 -1 -1 -1 -1 -1 -1 -1 -1 -1 -1 -1 -1 -1 -1 -1 -1 -1 -1 -1 -1 -1 -1 -1 -1 -1 -1 -1 -1 -1 -1 -1 -1 -1 -1 -1 -1 -1 -1 -1 -1 -1 -1 -1 -1 -1 -1 -1 -1 -1 -1 -1 -1 -1 -1 -1 -1 -1 -1 -1 -1 -1 -1 -1 -1 -1 -1 -1 -1 -1 -1 -1 -1 -1 -1 -1 -1 -1 -1 -1 -1 -1 -1 -1 -1 -1 -1 -1 -1 -1 -1 -1 -1 -1 -1 -1 -1 -1 -1 -1 -1 -1 -1 -1 -1 -1 -1 -1 -1 -1 -1 -1 -1 -1 -1 -1 -1 -1 -1 -1 -1 -1 -1 -1 -1 -1 -1 -1 -1 -1 -1 -1 -1 -1 -1 -1 -1 -1 -1 -1 -1 -1 -1 -1 -1 -1 -1 -1 -1 -1 -1 -1 -1 -1 -1 -1 -1 -1 -1 -1 -1 -1 -1 -1 -1 -1 -1 -1 -1 -1 -1 -1 -1 -1 -1 -1 -1 -1 -1 -1 -1 -1 -1 -1 -1 -1 -1 -1 -1 -1 -1 -1 -1 -1 -1 -1 -1 -1 -1 -1 -1 -1 -1 -1 -1 -1 -1 -1 -1 -1 -1 -1 -1 -1 -1 -1 -1 -1 -1 -1 -1 -1 -1 -1 -1 -1 -1 -1 -1 -1 -1 -1 -1 -1 -1 -1 -1 -1 -1 -1 -1 -1 -1 -1 -1 -1 -1 -1 -1 -1 -1 -1 -1 -1 -1 -1 -1 -1 -1 -1 -1 -1 -1 -1 -1 -1 -1 -1 -1 -1 -1 -1 -1 -1 -1 -1 -1 -1 -1 -1 -1 -1 -1 -1 -1 -1 -1 -1 -1 -1 -1 -1 -1 -1 -1 -1 -1 -1 -1 -1 -1 -1 -1 -1 -1 -1 -1 -1 -1 -1 -1 -1 -1 -1 -1 -1 -1 -1 -1 -1 -1 -1 -1 -1 -1 -1 -1 -1 -1 -1 -1 -1 -1 -1 -1 -1 -1 -1 -1 -1 -1 -1 -1 -1 -1 -1 -1 -1 -1 -1 -1 -1 -1 -1 -1 -1 -1 -1 -1 -1 -1 -1 -1 -1 -1 -1 -1 -1 -1 -1 -1 -1 -1 -1 -1 -1 -1 -1 -1 -1 -1 -1 -1 -1 -1 -1 -1 -1 -1 -1 -1 -1 -1 -1 -1 -1 -1 -1 -1 -1 -1 -1 -1 -1 -1 -1 -1 -1 -1 -1 -1 -1 -1 -1 -1 -1 -1 -1 -1 -1 -1 -1 -1 -1 -1 -1 -1 -1 -1 -1 -1 -1 -1 -1 -1 -1 -1 -1 -1 -1 -1 -1 -1 -1 -1 -1 -1 -1 -1 -1 -1 -1 -1 -1 -1 -1 -1 -1 -1 -1 -1 -1 -1 -1 -1 -1 -1 -1 -1 -1 -1 -1 -1 -1 -1 -1 -1 -1 -1 -1 -1 -1 -1 -1 -1 -1 -1 -1 -1 -1 -1 -1 -1 -1 -1 -1 -1 -1 -1 -1 -1 -1 -1 -1 -1 -1 -1 -1 -1 -1 -1 -1 -1 -1 -1 -1 -1 -1 -1 -1 -1 -1 -1 -1 -1 -1 -1 -1 -1 -1 -1 -1 -1 -1 -1 -1 -1 -1 -1 -1 -1 -1 -1 -1 -1 -1 -1 -1 -1 -1 -1 -1 -1 -1 -1 -1 -1 -1 -1 -1 -1 -1 -1 -1 -1 -1 -1 -1 -1 -1 -1 -1 -1 -1 -1 -1 -1 -1 -1 -1 -1 -1 -1 -1 -1 -1 -1 -1 -1 -1 -1 -1 -1 -1 -1 -1 -1 -1 -1 -1 -1 -1 -1 -1 -1 -1 -1 -1 -1 -1 -1 -1 -1 -1 -1 -1 -1 -1 -1 -1 -1 -1 -1 -1 -1 -1 -1 -1 -1 -1 -1 -1 -1 -1 -1 -1 -1 -1 -1 -1 -1 -1 -1 -1 -1 -1 -1 -1 -1 -1 -1 -1 -1 -1 -1 -1 -1 -1 -1 -1 -1 -1 -1 -1 -1 -1 -1 -1 -1 -1 -1 -1 -1 -1 -1 -1 -1 -1 -1 -1 -1 -1 -1 -1 -1 -1 -1 -1 -1 -1 -1 -1 -1 -1 -1 -1 -1 -1 -1 -1 -1 -1 -1 -1 -1 -1 -1 -1 -1 -1 -1 -1 -1 -1 -1 -1 -1 -1 -1 -1 -1 -1 -1 -1 -1 -1 -1 -1 -1 -1 -1 -1 -1 -1 -1 -1 -1 -1 -1 -1 -1 -1 -1 -1 -1 -1 -1 -1 -1 -1 -1 -1 -1 -1 -1 -1 -1 -1 -1 -1 -1 -1 -1 -1 -1 -1 -1 -1 -1 -1 -1 -1 -1 -1 -1 -1 -1 -1 -1 -1 -1 -1 -1 -1 -1 -1 -1 -1 -1 -1 -1 -1 -1 -1 -1 -1 -1 -1 -1 -1 -1 -1 -1 -1 -1 -1 -1 -1 -1 -1 -1 -1 -1 -1 -1 -1 -1 -1 -1 -1 -1 -1 -1 -1 -1 -1 -1 -1 -1 -1 -1 -1 -1 -1 -1 -1 -1 -1 -1 -1 -1 -1 -1 -1 -1 -1 -1 -1 -1 -1 -1 -1 -1 -1 -1 -1 -1 -1 -1 -1 -1 -1 -1 -1 -1 -1 -1 -1 -1 -1 -1 -1 -1 -1 -1 -1 -1 -1 -1 -1 -1 -1 -1 -1 -1 -1 -1 -1 -1 -1 -1 -1 -1 -1 -1 -1 -1 -1 -1 -1 -1 -1 -1 -1 -1 -1 -1 -1 -1 -1 -1 -1 -1 -1 -1 -1 -1 -1 -1 -1 -1 -1 -1 -1 -1 -1 -1 -1 -1 -1 -1 -1 -1 -1 -1 -1 -1 -1 -1 -1 -1 -1 -1 -1 -1 -1 -1 -1 -1 -1 -1 -1 -1 -1 -1 -1 -1 -1 -1 -1 -1 -1 -1 -1 -1 -1 -1 -1 -1 -1 -1 -1 -1 -1 -1 -1 -1 -1 -1 -1 -1 -1 -1 -1 -1 -1 -1 -1 -1 -1 -1 -1 -1 -1 -1 -1 -1 -1 -1 -1 -1 -1 -1 -1 -1 -1 -1 -1 -1 -1 -1 -1 -1 -1 -1 -1 -1 -1 -1 -1 -1 -1 -1 -1 -1 -1 -1 -1 -1 -1 -1 -1 -1 -1 -1 -1 -1 -1 -1 -1 -1 -1 -1 -1 -1 -1 -1 -1 -1 -1 -1 -1 -1 -1 -1 -1 -1 -1 -1 -1 -1 -1 -1 -1 -1 -1 -1 -1 -1 -1 -1 -1 -1 -1 -1 -1 -1 -1 -1 -1 -1 -1 -1 -1 -1 -1 -1 -1 -1 -1 -1 -1 -1 -1 -1 -1 -1 -1 -1 -1 -1 -1 -1 -1 -1 -1 -1 -1 -1 -1 -1 -1 -1 -1 -1 -1 -1 -1 -1 -1 -1 -1 -1 -1 -1 -1 -1 -1 -1 -1 -1 -1 -1 -1 -1 -1 -1 -1 -1 -1 -1 -1 -1 -1 -1 -1 -1 -1 -1 -1 -1 -1 -1 -1 -1 -1 -1 -1 -1 -1 -1 -1 -1 -1 -1 -1 -1 -1 -1 -1 -1 -1 -1 -1 -1 -1 -1 -1 -1 -1 -1 -1 -1 -1 -1 -1 -1 -1 -1 -1 -1 -1 -1 -1 -1 -1 -1 -1 -1 -1 -1 -1 -1 -1 -1 -1 -1 -1 -1 -1 -1 -1 -1 -1 -1 -1 -1 -1 -1 -1 -1 -1 -1 -1 -1 -1 -1 -1 -1 -1 -1 -1 -1 -1 -1 -1 -1 -1 -1 -1 -1 -1 -1 -1 -1 -1 -1 -1 -1 -1 -1 -1 -1 -1 -1 -1 -1 -1 -1 -1 -1 -1 -1 -1 -1 -1 -1 -1 -1 -1 -1 -1 -1 -1 -1 -1 -1 -1 -1 -1 -1 -1 -1 -1 -1 -1 -1 -1 -1 -1 -1 -1 -1 -1 -1 -1 -1 -1 -1 -1 -1 -1 -1 -1 -1 -1 -1 -1 -1 -1 -1 -1 -1 -1 -1 -1 -1 -1 -1 -1 -1 -1 -1 -1 -1 -1 -1 -1 -1 -1 -1 -1 -1 -1 -1 -1 -1 -1 -1 -1 -1 -1 -1 -1 -1 -1 -1 -1 -1 -1 -1 -1 -1 -1 -1 -1 -1 -1 -1 -1 -1 -1 -1 -1 -1 -1 -1 -1 -1 -1 -1 -1 -1 -1 -1 -1 -1 -1 -1 -1 -1 -1 -1 -1 -1 -1 -1 -1 -1 -1 -1 -1 -1 -1 -1 -1 -1 -1 -1 -1 -1 -1 -1 -1 -1 -1 -1 -1 -1 -1 -1 -1 -1 -1 -1 -1 -1 -1 -1 -1 -1 -1 -1 -1 -1 -1 -1 -1 -1 -1 -1 -1 -1 -1 -1 -1 -1 -1 -1 -1 -1 -1 -1 -1 -1 -1 -1 -1 -1 -1 -1 -1 -1 -1 -1 -1 -1 -1 -1 -1 -1 -1 -1 -1 -1 -1 -1 -1 -1 -1 -1 -1 -1 -1 -1 -1 -1 -1 -1 -1 -1 -1 -1 -1 -1 -1 -1 -1 -1 -1 -1 -1 -1 -1 -1 -1 -1 -1 -1 -1 -1 -1 -1 -1 -1 -1 -1 -1 -1 -1 -1 -1 -1 -1 -1 -1 -1 -1 -1 -1 -1 -1 -1 -1 -1 -1 -1 -1 -1 -1 -1 -1 -1 -1 -1 -1 -1 -1 -1 -1 -1 -1 -1 -1 -1 -1 -1 -1 -1 -1 -1 -1 -1 -1 -1 -1 -1 -1 -1 -1 -1 -1 -1 -1 -1 -1 -1 -1 -1 -1 -1 -1 -1 -1 -1 -1 -1 -1 -1 -1 -1 -1 -1 -1 -1 -1 -1 -1 -1 -1 -1 -1 -1 -1 -1 -1 -1 -1 -1 -1 -1 -1 -1 -1 -1 -1 -1 -1 -1 -1 -1 -1 -1 -1 -1 -1 -1 -1 -1 -1 -1 -1 -1 -1 -1 -1 -1 -1 -1 -1 -1 -1 -1 -1 -1 -1 -1 -1 -1 -1 -1 -1 -1 -1 -1 -1 -1 -1 -1 -1 -1 -1 -1 -1 -1 -1 -1 -1 -1 -1 -1 -1 -1 -1 -1 -1 -1 -1 -1 -1 -1 -1 -1 -1 -1 -1 -1 -1 -1 -1 -1 -1 -1 -1 -1 -1 -1 -1 -1 -1 -1 -1 -1 -1 -1 -1 -1 -1 -1 -1 -1 -1 -1 -1 -1 -1 -1 -1 -1 -1 -1 -1 -1 -1 -1 -1 -1 -1 -1 -1 -1 -1 -1 -1 -1 -1 -1 -1 -1 -1 -1 -1 -1 -1 -1 -1 -1 -1 -1 -1 -1 -1 -1 -1 -1 -1 -1 -1 -1 -1 -1 -1 -1 -1 -1 -1 -1 -1 -1 -1 -1 -1 -1 -1 -1 -1 -1 -1 -1 -1 -1 -1 -1 -1 -1 -1 -1 -1 -1 -1 -1 -1 -1 -1 -1 -1 -1 -1 -1 -1 -1 -1 -1 -1 -1 -1 -1 -1 -1 -1 -1 -1 -1 -1 -1 -1 -1 -1 -1 -1 -1 -1 -1 -1 -1 -1 -1 -1 -1 -1 -1 -1 -1 -1 -1 -1 -1 -1 -1 -1 -1 -1 -1 -1 -1 -1 -1 -1 -1 -1 -1 -1 -1 -1 -1 -1 -1 -1 -1 -1 -1 -1 -1 -1 -1 -1 -1 -1 -1 -1 -1 -1 -1 -1 -1 -1 -1 -1 -1 -1 -1 -1 -1 -1 -1 -1 -1 -1 -1 -1 -1 -1 -1 -1 -1 -1 -1 -1 -1 -1 -1 -1 -1 -1 -1 -1 -1 -1 -1 -1 -1 -1 -1 -1 -1 -1 -1 -1 -1 -1 -1 -1 -1 -1 -1 -1 -1 -1 -1 -1 -1 -1 -1 -1 -1 -1 -1 -1 -1 -1 -1 -1 -1 -1 -1 -1 -1 -1 -1 -1 -1 -1 -1 -1 -1 -1 -1 -1 -1 -1 -1 -1 -1 -1 -1 -1 -1 -1 -1 -1 -1 -1 -1 -1 -1 -1 -1 -1 -1 -1 -1 -1 -1 -1 -1 -1 -1 -1 -1 -1 -1 -1 -1 -1 -1 -1 -1 -1 -1 -1 -1 -1 -1 -1 -1 -1 -1 -1 -1 -1 -1 -1 -1 -1 -1 -1 -1 -1 -1 -1 -1 -1 -1 -1 -1 -1 -1 -1 -1 -1 -1 -1 -1 -1 -1 -1 -1 -1 -1 -1 -1 -1 -1 -1 -1 -1 -1 -1 -1 -1 -1 -1 -1 -1 -1 -1 -1 -1 -1 -1 -1 -1 -1 -1 -1 -1 -1 -1 -1 -1 -1 -1 -1 -1 -1 -1 -1 -1 -1 -1 -1 -1 -1 -1 -1 -1 -1 -1 -1 -1 -1 -1 -1 -1 -1 -1 -1 -1 -1 -1 -1 -1 -1 -1 -1 -1 -1 -1 -1 -1 -1 -1 -1 -1 -1 -1 -1 -1 -1 -1 -1 -1 -1 -1 -1 -1 -1 -1 -1 -1 -1 -1 -1 -1 -1 -1 -1 -1 -1 -1 -1 -1 -1 -1 -1 -1 -1 -1 -1 -1 -1 -1 -1 -1 -1 -1 -1 -1 -1 -1 -1 -1 -1 -1 -1 -1 -1 -1 -1 -1 -1 -1 -1 -1 -1 -1 -1 -1 -1 -1 -1 -1 -1 -1 -1 -1 -1 -1 -1 -1 -1 -1 -1 -1 -1 -1 -1 -1 -1 -1 -1 -1 -1 -1 -1 -1 -1 -1 -1 -1 -1 -1 -1 -1 -1 -1 -1 -1 -1 -1 -1 -1 -1 -1 -1 -1 -1 -1 -1 -1 -1 -1 -1 -1 -1 -1 -1 -1 -1 -1 -1 -1 -1 -1 -1 -1 -1 -1 -1 -1 -1 -1 -1 -1 -1 -1 -1 -1 -1 -1 -1 -1 -1 -1 -1 -1 -1 -1 -1 -1 -1 -1 -1 -1 -1 -1 -1 -1 -1 -1 -1 -1 -1 -1 -1 -1 -1 -1 -1 -1 -1 -1 -1 -1 -1 -1 -1 -1 -1 -1 -1 -1 -1 -1 -1 -1 -1 -1 -1 -1 -1 -1 -1 -1 -1 -1 -1 -1 -1 -1 -1 -1 -1 -1 -1 -1 -1 -1 -1 -1 -1 -1 -1 -1 -1 -1 -1 -1 -1 -1 -1 -1 -1 -1 -1 -1 -1 -1 -1 -1 -1 -1 -1 -1 -1 -1 -1 -1 -1 -1 -1 -1 -1 -1 -1 -1 -1 -1 -1 -1 -1 -1 -1 -1 -1 -1 -1 -1 -1 -1 -1 -1 -1 -1 -1 -1 -1 -1 -1 -1 -1 -1 -1 -1 -1 -1 -1 -1 -1 -1 -1 -1 -1 -1 -1 -1 -1 -1 -1 -1 -1 -1 -1 -1 -1 -1 -1 -1 -1 -1 -1 -1 -1 -1 -1 -1 -1 -1 -1 -1 -1 -1 -1 -1 -1 -1 -1 -1 -1 -1 -1 -1 -1 -1 -1 -1 -1 -1 -1 -1 -1 -1 -1 -1 -1 -1 -1 -1 -1 -1 -1 -1 -1 -1 -1 -1 -1 -1 -1 -1 -1 -1 -1 -1 -1 -1 -1 -1 -1 -1 -1 -1 -1 -1 -1 -1 -1 -1 -1 -1 -1 -1 -1 -1 -1 -1 -1 -1 -1 -1 -1 -1 -1 -1 -1 -1 -1 -1 -1 -1 -1 -1 -1 -1 -1 -1 -1 -1 -1 -1 -1 -1 -1 -1 -1 -1 -1 -1 -1 -1 -1 -1 -1 -1 -1 -1 -1 -1 -1 -1 -1 -1 -1 -1 -1 -1 -1 -1 -1 -1 -1 -1 -1 -1 -1 -1 -1 -1 -1 -1 -1 -1 -1 -1 -1 -1 -1 -1 -1 -1 -1 -1 -1 -1 -1 -1 -1 -1 -1 -1 -1 -1 -1 -1 -1 -1 -1 -1 -1 -1 -1 -1 -1 -1 -1 -1 -1 -1 -1 -1 -1 -1 -1 -1 -1 -1 -1 -1 -1 -1 -1 -1 -1 -1 -1 -1 -1 -1 -1 -1 -1 -1 -1 -1 -1 -1 -1 -1 -1 -1 -1 -1 -1 -1 -1 -1 -1 -1 -1 -1 -1 -1 -1 -1 -1 -1 -1 -1 -1 -1 -1 -1 -1 -1 -1 -1 -1 -1 -1 -1 -1 -1 -1 -1 -1 -1 -1 -1 -1 -1 -1 -1 -1 -1 -1 -1 -1 -1 -1 -1 -1 -1 -1 -1 -1 -1 -1 -1 -1 -1 -1 -1 -1 -1 -1 -1 -1 -1 -1 -1 -1 -1 -1 -1 -1 -1 -1 -1 -1 -1 -1 -1 -1 -1 -1 -1 -1 -1 -1 -1 -1 -1 -1 -1 -1 -1 -1 -1 -1 -1 -1 -1 -1 -1 -1 -1 -1 -1 -1 -1 -1 -1 -1 -1 -1 -1 -1 -1 -1 -1 -1 -1 -1 -1 -1 -1 -1 -1 -1 -1 -1 -1 -1 -1 -1 -1 -1 -1 -1 -1 -1 -1 -1 -1 -1 -1 -1 -1 -1 -1 -1 -1 -1 -1 -1 -1 -1 -1 -1 -1 -1 -1 -1 -1 -1 -1 -1 -1 -1 -1 -1 -1 -1 -1 -1 -1 -1 -1 -1 -1 -1 -1 -1 -1 -1 -1 -1 -1 -1 -1 -1 -1 -1 -1 -1 -1 -1 -1 -1 -1 -1 -1 -1 -1 -1 -1 -1 -1 -1 -1 -1 -1 -1 -1 -1 -1 -1 -1 -1 -1 -1 -1 -1 -1 -1 -1 -1 -1 -1 -1 -1 -1 -1 -1 -1 -1 -1 -1 -1 -1 -1 -1 -1 -1 -1 -1 -1 -1 -1 -1 -1 -1 -1 -1 -1 -1 -1 -1 -1 -1 -1 -1 -1 -1 -1 -1 -1 -1 -1 -1 -1 -1 -1 -1 -1 -1 -1 -1 -1 -1 -1 -1 -1 -1 -1 -1 -1 -1 -1 -1 -1 -1 -1 -1 -1 -1 -1 -1 -1 -1 -1 -1 -1 -1 -1 -1 -1 -1 -1 -1 -1 -1 -1 -1 -1 -1 -1 -1 -1 -1 -1 -1 -1 -1 -1 -1 -1 -1 -1 -1 -1 -1 -1 -1 -1 -1 -1 -1 -1 -1 -1 -1 -1 -1 -1 -1 -1 -1 -1 -1 -1 -1 -1 -1 -1 -1 -1 -1 -1 -1 -1 -1 -1 -1 -1 -1 -1 -1 -1 -1 -1 -1 -1 -1 -1 -1 -1 -1 -1 -1 -1 -1 -1 -1 -1 -1 -1 -1 -1 -1 -1 -1 -1 -1 -1 -1 -1 -1 -1 -1 -1 -1 -1 -1 -1 -1 -1 -1 -1 -1 -1 -1 -1 -1 -1 -1 -1 -1 -1 -1 -1 -1 -1 -1 -1 -1 -1 -1 -1 -1 -1 -1 -1 -1 -1 -1 -1 -1 -1 -1 -1 -1 -1 -1 -1 -1 -1 -1 -1 -1 -1 -1 -1 -1 -1 -1 -1 -1 -1 -1 -1 -1 -1 -1 -1 -1 -1 -1 -1 -1 -1 -1 -1 -1 -1 -1 -1 -1 -1 -1 -1 -1 -1 -1 -1 -1 -1 -1 -1 -1 -1 -1 -1 -1 -1 -1 -1 -1 -1 -1 -1 -1 -1 -1 -1 -1 -1 -1 -1 -1 -1 -1 -1 -1 -1 -1 -1 -1 -1 -1 -1 -1 -1 -1 -1 -1 -1 -1 -1 -1 -1 -1 -1 -1 -1 -1 -1 -1 -1 -1 -1 -1 -1 -1 -1 -1 -1 -1 -1 -1 -1 -1 -1 -1 -1 -1 -1 -1 -1 -1 -1 -1 -1 -1 -1 -1 -1 -1 -1 -1 -1 -1 -1 -1 -1 -1 -1 -1 -1 -1 -1 -1 -1 -1 -1 -1 -1 -1 -1 -1 -1 -1 -1 -1 -1 -1 -1 -1 -1 -1 -1 -1 -1 -1 -1 -1 -1 -1 -1 -1 -1 -1 -1 -1 -1 -1 -1 -1 -1 -1 -1 -1 -1 -1 -1 -1 -1 -1 -1 -1 -1 -1 -1 -1 -1 -1 -1 -1 -1 -1 -1 -1 -1 -1 -1 -1 -1 -1 -1 -1 -1 -1 -1 -1 -1 -1 -1 -1 -1 -1 -1 -1 -1 -1 -1 -1 -1 -1 -1 -1 -1 -1 -1 -1 -1 -1 -1 -1 -1 -1 -1 -1 -1 -1 -1 -1 -1 -1 -1 -1 -1 -1 -1 -1 -1 -1 -1 -1 -1 -1 -1 -1 -1 -1 -1 -1 -1 -1 -1 -1 -1 -1 -1 -1 -1 -1 -1 -1 -1 -1 -1 -1 -1 -1 -1 -1 -1 -1 -1 -1 -1 -1 -1 -1 -1 -1 -1 -1 -1 -1 -1 -1 -1 -1 -1 -1 -1 -1 -1 -1 -1 -1 -1 -1 -1 -1 -1 -1 -1 -1 -1 -1 -1 -1 -1 -1 -1 -1 -1 -1 -1 -1 -1 -1 -1 -1 -1 -1 -1 -1 -1 -1 -1 -1 -1 -1 -1 -1 -1 -1 -1 -1 -1 -1 -1 -1 -1 -1 -1 -1 -1 -1 -1 -1 -1 -1 -1 -1 -1 -1 -1 -1 -1 -1 -1 -1 -1 -1 -1 -1 -1 -1 -1 -1 -1 -1 -1 -1 -1 -1 -1 -1 -1 -1 -1 -1 -1 -1 -1 -1 -1 -1 -1 -1 -1 -1 -1 -1 -1 -1 -1 -1 -1 -1 -1 -1 -1 -1 -1 -1 -1 -1 -1 -1 -1 -1 -1 -1 -1 -1 -1 -1 -1 -1 -1 -1 -1 -1 -1 -1 -1 -1 -1 -1 -1 -1 -1 -1 -1 -1 -1 -1 -1 -1 -1 -1 -1 -1 -1 -1 -1 -1 -1 -1 -1 -1 -1 -1 -1 -1 -1 -1 -1 -1 -1 -1 -1 -1 -1 -1 -1 -1 -1 -1 -1 -1 -1 -1 -1 -1 -1 -1 -1 -1 -1 -1 -1 -1 -1 -1 -1 -1 -1 -1 -1 -1 -1 -1 -1 -1 -1 -1 -1 -1 -1 -1 -1 -1 -1 -1 -1 -1 -1 -1 -1 -1 -1 -1 -1 -1 -1 -1 -1 -1 -1 -1 -1 -1 -1 -1 -1 -1 -1 -1 -1 -1 -1 -1 -1 -1 -1 -1 -1 -1 -1 -1 -1 -1 -1 -1 -1 -1 -1 -1 -1 -1 -1 -1 -1 -1 -1 -1 -1 -1 -1 -1 -1 -1 -1 -1 -1 -1 -1 -1 -1 -1 -1 -1 -1 -1 -1 -1 -1 -1 -1 -1 -1 -1 -1 -1 -1 -1 -1 -1 -1 -1 -1 -1 -1 -1 -1 -1 -1 -1 -1 -1 -1 -1 -1 -1 -1 -1 -1 -1 -1 -1 -1 -1 -1 -1 -1 -1 -1 -1 -1 -1 -1 -1 -1 -1 -1 -1 -1 -1 -1 -1 -1 -1 -1 -1 -1 -1 -1 -1 -1 -1 -1 -1 -1 -1 -1 -1 -1 -1 -1 -1 -1 -1 -1 -1 -1 -1 -1 -1 -1 -1 -1 -1 -1 -1 -1 -1 -1 -1 -1 -1 -1 -1 -1 -1 -1 -1 -1 -1 -1 -1 -1 -1 -1 -1 -1 -1 -1 -1 -1 -1 -1 -1 -1 -1 -1 -1 -1 -1 -1 -1 -1 -1 -1 -1 -1 -1 -1 -1 -1 -1 -1 -1 -1 -1 -1 -1 -1 -1 -1 -1 -1 -1 -1 -1 -1 -1 -1 -1 -1 -1 -1 -1 -1 -1 -1 -1 -1 -1 -1 -1 -1 -1 -1 -1 -1 -1 -1 -1 -1 -1 -1 -1 -1 -1 -1 -1 -1 -1 -1 -1 -1 -1 -1 -1 -1 -1 -1 -1 -1 -1 -1 -1 -1 -1 -1 -1 -1 -1 -1 -1 -1 -1 -1 