# vtk DataFile Version 3.0
Triangulation generated with deal.II
ASCII
DATASET UNSTRUCTURED_GRID
POINTS 729 double
-1 -1 -1
1 -1 -1
-1 1 -1
1 1 -1
-1 -1 1
1 -1 1
-1 1 1
1 1 1
0 -1 -1
-1 0 -1
-1 -1 0
1 0 -1
1 -1 0
0 1 -1
-1 1 0
1 1 0
0 -1 1
-1 0 1
1 0 1
0 1 1
0 -1 0
0 0 -1
-1 0 0
1 0 0
0 1 0
0 0 1
0 0 0
-0.5 -1 -1
0.5 -1 -1
-1 -0.5 -1
-1 0.5 -1
-1 -1 -0.5
-1 -1 0.5
1 -0.5 -1
1 0.5 -1
1 -1 -0.5
1 -1 0.5
-0.5 1 -1
0.5 1 -1
-1 1 -0.5
-1 1 0.5
1 1 -0.5
1 1 0.5
-0.5 -1 1
0.5 -1 1
-1 -0.5 1
-1 0.5 1
1 -0.5 1
1 0.5 1
-0.5 1 1
0.5 1 1
-0.5 -1 0
0.5 -1 0
0 -1 -0.5
0 -1 0.5
0 -0.5 -1
0 0.5 -1
-0.5 0 -1
0.5 0 -1
-1 0 -0.5
-1 0 0.5
-1 -0.5 0
-1 0.5 0
1 0 -0.5
1 0 0.5
1 -0.5 0
1 0.5 0
-0.5 1 0
0.5 1 0
0 1 -0.5
0 1 0.5
0 -0.5 1
0 0.5 1
-0.5 0 1
0.5 0 1
0 0 0.5
0 0 -0.5
0.5 0 0
-0.5 0 0
0 0.5 0
0 -0.5 0
-0.5 -1 -0.5
-0.5 -1 0.5
0.5 -1 -0.5
0.5 -1 0.5
-0.5 -0.5 -1
0.5 -0.5 -1
-0.5 0.5 -1
0.5 0.5 -1
-1 -0.5 -0.5
-1 0.5 -0.5
-1 -0.5 0.5
-1 0.5 0.5
1 -0.5 -0.5
1 0.5 -0.5
1 -0.5 0.5
1 0.5 0.5
-0.5 1 -0.5
-0.5 1 0.5
0.5 1 -0.5
0.5 1 0.5
-0.5 -0.5 1
0.5 -0.5 1
-0.5 0.5 1
0.5 0.5 1
0.5 0.5 0
-0.5 0.5 0
0.5 -0.5 0
-0.5 -0.5 0
0.5 0 0.5
0.5 0 -0.5
-0.5 0 0.5
-0.5 0 -0.5
0 0.5 0.5
0 -0.5 0.5
0 0.5 -0.5
0 -0.5 -0.5
-0.5 -0.5 -0.5
0.5 -0.5 -0.5
-0.5 0.5 -0.5
0.5 0.5 -0.5
-0.5 -0.5 0.5
0.5 -0.5 0.5
-0.5 0.5 0.5
0.5 0.5 0.5
-0.75 -1 -1
-0.25 -1 -1
0.25 -1 -1
0.75 -1 -1
-1 -0.75 -1
-1 -0.25 -1
-1 0.25 -1
-1 0.75 -1
-1 -1 -0.75
-1 -1 -0.25
-1 -1 0.25
-1 -1 0.75
1 -0.75 -1
1 -0.25 -1
1 0.25 -1
1 0.75 -1
1 -1 -0.75
1 -1 -0.25
1 -1 0.25
1 -1 0.75
-0.75 1 -1
-0.25 1 -1
0.25 1 -1
0.75 1 -1
-1 1 -0.75
-1 1 -0.25
-1 1 0.25
-1 1 0.75
1 1 -0.75
1 1 -0.25
1 1 0.25
1 1 0.75
-0.75 -1 1
-0.25 -1 1
0.25 -1 1
0.75 -1 1
-1 -0.75 1
-1 -0.25 1
-1 0.25 1
-1 0.75 1
1 -0.75 1
1 -0.25 1
1 0.25 1
1 0.75 1
-0.75 1 1
-0.25 1 1
0.25 1 1
0.75 1 1
-0.75 -1 0
-0.25 -1 0
0.25 -1 0
0.75 -1 0
0 -1 -0.75
0 -1 -0.25
0 -1 0.25
0 -1 0.75
0 -0.75 -1
0 -0.25 -1
0 0.25 -1
0 0.75 -1
-0.75 0 -1
-0.25 0 -1
0.25 0 -1
0.75 0 -1
-1 0 -0.75
-1 0 -0.25
-1 0 0.25
-1 0 0.75
-1 -0.75 0
-1 -0.25 0
-1 0.25 0
-1 0.75 0
1 0 -0.75
1 0 -0.25
1 0 0.25
1 0 0.75
1 -0.75 0
1 -0.25 0
1 0.25 0
1 0.75 0
-0.75 1 0
-0.25 1 0
0.25 1 0
0.75 1 0
0 1 -0.75
0 1 -0.25
0 1 0.25
0 1 0.75
0 -0.75 1
0 -0.25 1
0 0.25 1
0 0.75 1
-0.75 0 1
-0.25 0 1
0.25 0 1
0.75 0 1
0 0 0.25
0 0 0.75
0 0 -0.75
0 0 -0.25
0.25 0 0
0.75 0 0
-0.75 0 0
-0.25 0 0
0 0.25 0
0 0.75 0
0 -0.75 0
0 -0.25 0
-0.75 -1 -0.5
-0.25 -1 -0.5
-0.5 -1 -0.75
-0.5 -1 -0.25
-0.75 -1 0.5
-0.25 -1 0.5
-0.5 -1 0.25
-0.5 -1 0.75
0.25 -1 -0.5
0.75 -1 -0.5
0.5 -1 -0.75
0.5 -1 -0.25
0.25 -1 0.5
0.75 -1 0.5
0.5 -1 0.25
0.5 -1 0.75
-0.5 -0.75 -1
-0.5 -0.25 -1
-0.75 -0.5 -1
-0.25 -0.5 -1
0.5 -0.75 -1
0.5 -0.25 -1
0.25 -0.5 -1
0.75 -0.5 -1
-0.5 0.25 -1
-0.5 0.75 -1
-0.75 0.5 -1
-0.25 0.5 -1
0.5 0.25 -1
0.5 0.75 -1
0.25 0.5 -1
0.75 0.5 -1
-1 -0.5 -0.75
-1 -0.5 -0.25
-1 -0.75 -0.5
-1 -0.25 -0.5
-1 0.5 -0.75
-1 0.5 -0.25
-1 0.25 -0.5
-1 0.75 -0.5
-1 -0.5 0.25
-1 -0.5 0.75
-1 -0.75 0.5
-1 -0.25 0.5
-1 0.5 0.25
-1 0.5 0.75
-1 0.25 0.5
-1 0.75 0.5
1 -0.5 -0.75
1 -0.5 -0.25
1 -0.75 -0.5
1 -0.25 -0.5
1 0.5 -0.75
1 0.5 -0.25
1 0.25 -0.5
1 0.75 -0.5
1 -0.5 0.25
1 -0.5 0.75
1 -0.75 0.5
1 -0.25 0.5
1 0.5 0.25
1 0.5 0.75
1 0.25 0.5
1 0.75 0.5
-0.75 1 -0.5
-0.25 1 -0.5
-0.5 1 -0.75
-0.5 1 -0.25
-0.75 1 0.5
-0.25 1 0.5
-0.5 1 0.25
-0.5 1 0.75
0.25 1 -0.5
0.75 1 -0.5
0.5 1 -0.75
0.5 1 -0.25
0.25 1 0.5
0.75 1 0.5
0.5 1 0.25
0.5 1 0.75
-0.5 -0.75 1
-0.5 -0.25 1
-0.75 -0.5 1
-0.25 -0.5 1
0.5 -0.75 1
0.5 -0.25 1
0.25 -0.5 1
0.75 -0.5 1
-0.5 0.25 1
-0.5 0.75 1
-0.75 0.5 1
-0.25 0.5 1
0.5 0.25 1
0.5 0.75 1
0.25 0.5 1
0.75 0.5 1
0.5 0.25 0
0.5 0.75 0
0.25 0.5 0
0.75 0.5 0
-0.5 0.25 0
-0.5 0.75 0
-0.75 0.5 0
-0.25 0.5 0
0.5 -0.75 0
0.5 -0.25 0
0.25 -0.5 0
0.75 -0.5 0
-0.5 -0.75 0
-0.5 -0.25 0
-0.75 -0.5 0
-0.25 -0.5 0
0.25 0 0.5
0.75 0 0.5
0.5 0 0.25
0.5 0 0.75
0.25 0 -0.5
0.75 0 -0.5
0.5 0 -0.75
0.5 0 -0.25
-0.75 0 0.5
-0.25 0 0.5
-0.5 0 0.25
-0.5 0 0.75
-0.75 0 -0.5
-0.25 0 -0.5
-0.5 0 -0.75
-0.5 0 -0.25
0 0.5 0.25
0 0.5 0.75
0 0.25 0.5
0 0.75 0.5
0 -0.5 0.25
0 -0.5 0.75
0 -0.75 0.5
0 -0.25 0.5
0 0.5 -0.75
0 0.5 -0.25
0 0.25 -0.5
0 0.75 -0.5
0 -0.5 -0.75
0 -0.5 -0.25
0 -0.75 -0.5
0 -0.25 -0.5
0.5 0.5 0.75
0.5 0.5 0.25
0.75 0.5 0.5
0.25 0.5 0.5
0.5 0.75 0.5
0.5 0.25 0.5
-0.5 0.5 0.75
-0.5 0.5 0.25
-0.25 0.5 0.5
-0.75 0.5 0.5
-0.5 0.75 0.5
-0.5 0.25 0.5
0.5 -0.5 0.75
0.5 -0.5 0.25
0.75 -0.5 0.5
0.25 -0.5 0.5
0.5 -0.25 0.5
0.5 -0.75 0.5
-0.5 -0.5 0.75
-0.5 -0.5 0.25
-0.25 -0.5 0.5
-0.75 -0.5 0.5
-0.5 -0.25 0.5
-0.5 -0.75 0.5
0.5 0.5 -0.25
0.5 0.5 -0.75
0.75 0.5 -0.5
0.25 0.5 -0.5
0.5 0.75 -0.5
0.5 0.25 -0.5
-0.5 0.5 -0.25
-0.5 0.5 -0.75
-0.25 0.5 -0.5
-0.75 0.5 -0.5
-0.5 0.75 -0.5
-0.5 0.25 -0.5
0.5 -0.5 -0.25
0.5 -0.5 -0.75
0.75 -0.5 -0.5
0.25 -0.5 -0.5
0.5 -0.25 -0.5
0.5 -0.75 -0.5
-0.5 -0.5 -0.25
-0.5 -0.5 -0.75
-0.25 -0.5 -0.5
-0.75 -0.5 -0.5
-0.5 -0.25 -0.5
-0.5 -0.75 -0.5
-0.75 -1 -0.75
-0.75 -1 -0.25
-0.25 -1 -0.75
-0.25 -1 -0.25
-0.75 -1 0.25
-0.75 -1 0.75
-0.25 -1 0.25
-0.25 -1 0.75
0.25 -1 -0.75
0.25 -1 -0.25
0.75 -1 -0.75
0.75 -1 -0.25
0.25 -1 0.25
0.25 -1 0.75
0.75 -1 0.25
0.75 -1 0.75
-0.75 -0.75 -1
-0.25 -0.75 -1
-0.75 -0.25 -1
-0.25 -0.25 -1
0.25 -0.75 -1
0.75 -0.75 -1
0.25 -0.25 -1
0.75 -0.25 -1
-0.75 0.25 -1
-0.25 0.25 -1
-0.75 0.75 -1
-0.25 0.75 -1
0.25 0.25 -1
0.75 0.25 -1
0.25 0.75 -1
0.75 0.75 -1
-1 -0.75 -0.75
-1 -0.25 -0.75
-1 -0.75 -0.25
-1 -0.25 -0.25
-1 0.25 -0.75
-1 0.75 -0.75
-1 0.25 -0.25
-1 0.75 -0.25
-1 -0.75 0.25
-1 -0.25 0.25
-1 -0.75 0.75
-1 -0.25 0.75
-1 0.25 0.25
-1 0.75 0.25
-1 0.25 0.75
-1 0.75 0.75
1 -0.75 -0.75
1 -0.25 -0.75
1 -0.75 -0.25
1 -0.25 -0.25
1 0.25 -0.75
1 0.75 -0.75
1 0.25 -0.25
1 0.75 -0.25
1 -0.75 0.25
1 -0.25 0.25
1 -0.75 0.75
1 -0.25 0.75
1 0.25 0.25
1 0.75 0.25
1 0.25 0.75
1 0.75 0.75
-0.75 1 -0.75
-0.75 1 -0.25
-0.25 1 -0.75
-0.25 1 -0.25
-0.75 1 0.25
-0.75 1 0.75
-0.25 1 0.25
-0.25 1 0.75
0.25 1 -0.75
0.25 1 -0.25
0.75 1 -0.75
0.75 1 -0.25
0.25 1 0.25
0.25 1 0.75
0.75 1 0.25
0.75 1 0.75
-0.75 -0.75 1
-0.25 -0.75 1
-0.75 -0.25 1
-0.25 -0.25 1
0.25 -0.75 1
0.75 -0.75 1
0.25 -0.25 1
0.75 -0.25 1
-0.75 0.25 1
-0.25 0.25 1
-0.75 0.75 1
-0.25 0.75 1
0.25 0.25 1
0.75 0.25 1
0.25 0.75 1
0.75 0.75 1
0.25 0.25 0
0.75 0.25 0
0.25 0.75 0
0.75 0.75 0
-0.75 0.25 0
-0.25 0.25 0
-0.75 0.75 0
-0.25 0.75 0
0.25 -0.75 0
0.75 -0.75 0
0.25 -0.25 0
0.75 -0.25 0
-0.75 -0.75 0
-0.25 -0.75 0
-0.75 -0.25 0
-0.25 -0.25 0
0.25 0 0.25
0.25 0 0.75
0.75 0 0.25
0.75 0 0.75
0.25 0 -0.75
0.25 0 -0.25
0.75 0 -0.75
0.75 0 -0.25
-0.75 0 0.25
-0.75 0 0.75
-0.25 0 0.25
-0.25 0 0.75
-0.75 0 -0.75
-0.75 0 -0.25
-0.25 0 -0.75
-0.25 0 -0.25
0 0.25 0.25
0 0.75 0.25
0 0.25 0.75
0 0.75 0.75
0 -0.75 0.25
0 -0.25 0.25
0 -0.75 0.75
0 -0.25 0.75
0 0.25 -0.75
0 0.75 -0.75
0 0.25 -0.25
0 0.75 -0.25
0 -0.75 -0.75
0 -0.25 -0.75
0 -0.75 -0.25
0 -0.25 -0.25
0.75 0.75 0.5
0.25 0.75 0.5
0.75 0.25 0.5
0.25 0.25 0.5
0.75 0.5 0.75
0.75 0.5 0.25
0.25 0.5 0.75
0.25 0.5 0.25
0.5 0.75 0.75
0.5 0.25 0.75
0.5 0.75 0.25
0.5 0.25 0.25
-0.25 0.75 0.5
-0.75 0.75 0.5
-0.25 0.25 0.5
-0.75 0.25 0.5
-0.25 0.5 0.75
-0.25 0.5 0.25
-0.75 0.5 0.75
-0.75 0.5 0.25
-0.5 0.75 0.75
-0.5 0.25 0.75
-0.5 0.75 0.25
-0.5 0.25 0.25
0.75 -0.25 0.5
0.25 -0.25 0.5
0.75 -0.75 0.5
0.25 -0.75 0.5
0.75 -0.5 0.75
0.75 -0.5 0.25
0.25 -0.5 0.75
0.25 -0.5 0.25
0.5 -0.25 0.75
0.5 -0.75 0.75
0.5 -0.25 0.25
0.5 -0.75 0.25
-0.25 -0.25 0.5
-0.75 -0.25 0.5
-0.25 -0.75 0.5
-0.75 -0.75 0.5
-0.25 -0.5 0.75
-0.25 -0.5 0.25
-0.75 -0.5 0.75
-0.75 -0.5 0.25
-0.5 -0.25 0.75
-0.5 -0.75 0.75
-0.5 -0.25 0.25
-0.5 -0.75 0.25
0.75 0.75 -0.5
0.25 0.75 -0.5
0.75 0.25 -0.5
0.25 0.25 -0.5
0.75 0.5 -0.25
0.75 0.5 -0.75
0.25 0.5 -0.25
0.25 0.5 -0.75
0.5 0.75 -0.25
0.5 0.25 -0.25
0.5 0.75 -0.75
0.5 0.25 -0.75
-0.25 0.75 -0.5
-0.75 0.75 -0.5
-0.25 0.25 -0.5
-0.75 0.25 -0.5
-0.25 0.5 -0.25
-0.25 0.5 -0.75
-0.75 0.5 -0.25
-0.75 0.5 -0.75
-0.5 0.75 -0.25
-0.5 0.25 -0.25
-0.5 0.75 -0.75
-0.5 0.25 -0.75
0.75 -0.25 -0.5
0.25 -0.25 -0.5
0.75 -0.75 -0.5
0.25 -0.75 -0.5
0.75 -0.5 -0.25
0.75 -0.5 -0.75
0.25 -0.5 -0.25
0.25 -0.5 -0.75
0.5 -0.25 -0.25
0.5 -0.75 -0.25
0.5 -0.25 -0.75
0.5 -0.75 -0.75
-0.25 -0.25 -0.5
-0.75 -0.25 -0.5
-0.25 -0.75 -0.5
-0.75 -0.75 -0.5
-0.25 -0.5 -0.25
-0.25 -0.5 -0.75
-0.75 -0.5 -0.25
-0.75 -0.5 -0.75
-0.5 -0.25 -0.25
-0.5 -0.75 -0.25
-0.5 -0.25 -0.75
-0.5 -0.75 -0.75
-0.75 -0.75 -0.75
-0.25 -0.75 -0.75
-0.75 -0.25 -0.75
-0.25 -0.25 -0.75
-0.75 -0.75 -0.25
-0.25 -0.75 -0.25
-0.75 -0.25 -0.25
-0.25 -0.25 -0.25
0.25 -0.75 -0.75
0.75 -0.75 -0.75
0.25 -0.25 -0.75
0.75 -0.25 -0.75
0.25 -0.75 -0.25
0.75 -0.75 -0.25
0.25 -0.25 -0.25
0.75 -0.25 -0.25
-0.75 0.25 -0.75
-0.25 0.25 -0.75
-0.75 0.75 -0.75
-0.25 0.75 -0.75
-0.75 0.25 -0.25
-0.25 0.25 -0.25
-0.75 0.75 -0.25
-0.25 0.75 -0.25
0.25 0.25 -0.75
0.75 0.25 -0.75
0.25 0.75 -0.75
0.75 0.75 -0.75
0.25 0.25 -0.25
0.75 0.25 -0.25
0.25 0.75 -0.25
0.75 0.75 -0.25
-0.75 -0.75 0.25
-0.25 -0.75 0.25
-0.75 -0.25 0.25
-0.25 -0.25 0.25
-0.75 -0.75 0.75
-0.25 -0.75 0.75
-0.75 -0.25 0.75
-0.25 -0.25 0.75
0.25 -0.75 0.25
0.75 -0.75 0.25
0.25 -0.25 0.25
0.75 -0.25 0.25
0.25 -0.75 0.75
0.75 -0.75 0.75
0.25 -0.25 0.75
0.75 -0.25 0.75
-0.75 0.25 0.25
-0.25 0.25 0.25
-0.75 0.75 0.25
-0.25 0.75 0.25
-0.75 0.25 0.75
-0.25 0.25 0.75
-0.75 0.75 0.75
-0.25 0.75 0.75
0.25 0.25 0.25
0.75 0.25 0.25
0.25 0.75 0.25
0.75 0.75 0.25
0.25 0.25 0.75
0.75 0.25 0.75
0.25 0.75 0.75
0.75 0.75 0.75

CELLS 512 4608
8 0 125 441 129 133 425 665 457
8 125 27 249 441 425 235 664 665
8 129 441 251 29 457 665 660 265
8 441 249 85 251 665 664 420 660
8 133 425 665 457 31 233 656 267
8 425 235 664 665 233 81 424 656
8 457 665 660 265 267 656 422 89
8 665 664 420 660 656 424 117 422
8 27 126 442 249 235 427 666 664
8 126 8 181 442 427 177 565 666
8 249 442 252 85 664 666 658 420
8 442 181 55 252 666 565 373 658
8 235 427 666 664 81 234 655 424
8 427 177 565 666 234 53 375 655
8 664 666 658 420 424 655 421 117
8 666 565 373 658 655 375 116 421
8 29 251 443 130 265 660 667 458
8 251 85 250 443 660 420 663 667
8 130 443 185 9 458 667 549 189
[...]
CELL_DATA 512
SCALARS MaterialID int 1
LOOKUP_TABLE default
0 0 0 0 0 0 0 0 0 0 0 0 0 0 0 0 0 0 0 0 0 0 0 0 0 0 0 0 0 0 0 0 0 0 0 0 0 0 0 0 0 0 0 0 0 0 0 0 0 0 0 0 0 0 0 0 0 0 0 0 0 0 0 0 0 0 0 0 0 0 0 0 0 0 0 0 0 0 0 0 0 0 0 0 0 0 0 0 0 0 0 0 0 0 0 0 0 0 0 0 0 0 0 0 0 0 0 0 0 0 0 0 0 0 0 0 0 0 0 0 0 0 0 0 0 0 0 0 0 0 0 0 0 0 0 0 0 0 0 0 0 0 0 0 0 0 0 0 0 0 0 0 0 0 0 0 0 0 0 0 0 0 0 0 0 0 0 0 0 0 0 0 0 0 0 0 0 0 0 0 0 0 0 0 0 0 0 0 0 0 0 0 0 0 0 0 0 0 0 0 0 0 0 0 0 0 0 0 0 0 0 0 0 0 0 0 0 0 0 0 0 0 0 0 0 0 0 0 0 0 0 0 0 0 0 0 0 0 0 0 0 0 0 0 0 0 0 0 0 0 0 0 0 0 0 0 0 0 0 0 0 0 0 0 0 0 0 0 0 0 0 0 0 0 0 0 0 0 0 0 0 0 0 0 0 0 0 0 0 0 0 0 0 0 0 0 0 0 0 0 0 0 0 0 0 0 0 0 0 0 0 0 0 0 0 0 0 0 0 0 0 0 0 0 0 0 0 0 0 0 0 0 0 0 0 0 0 0 0 0 0 0 0 0 0 0 0 0 0 0 0 0 0 0 0 0 0 0 0 0 0 0 0 0 0 0 0 0 0 0 0 0 0 0 0 0 0 0 0 0 0 0 0 0 0 0 0 0 0 0 0 0 0 0 0 0 0 0 0 0 0 0 0 0 0 0 0 0 0 0 0 0 0 0 0 0 0 0 0 0 0 0 0 0 0 0 0 0 0 0 0 0 0 0 0 0 0 0 0 0 0 0 0 0 0 0 0 0 0 0 0 0 0 0 0 0 0 0 0 0 0 0 0 0 0 0 0 0 0 0 0 0 0 0 0 0 0 0 0 0 0 0 0 0 0 0 0 0 0 0 0 0 0 0 0 0 0 0 0 0 0 0 0 0 0 0 0 0 0 0 0 0 



SCALARS ManifoldID int 1
LOOKUP_TABLE default
-1 -1 -1 -1 -1 -1 -1 -1 -1 -1 -1 -1 -1 -1 -1 -1 -1 -1 -1 -1 -1 -1 -1 -1 -1 -1 -1 -1 -1 -1 -1 -1 -1 -1 -1 -1 -1 -1 -1 -1 -1 -1 -1 -1 -1 -1 -1 -1 -1 -1 -1 -1 -1 -1 -1 -1 -1 -1 -1 -1 -1 -1 -1 -1 -1 -1 -1 -1 -1 -1 -1 -1 -1 -1 -1 -1 -1 -1 -1 -1 -1 -1 -1 -1 -1 -1 -1 -1 -1 -1 -1 -1 -1 -1 -1 -1 -1 -1 -1 -1 -1 -1 -1 -1 -1 -1 -1 -1 -1 -1 -1 -1 -1 -1 -1 -1 -1 -1 -1 -1 -1 -1 -1 -1 -1 -1 -1 -1 -1 -1 -1 -1 -1 -1 -1 -1 -1 -1 -1 -1 -1 -1 -1 -1 -1 -1 -1 -1 -1 -1 -1 -1 -1 -1 -1 -1 -1 -1 -1 -1 -1 -1 -1 -1 -1 -1 -1 -1 -1 -1 -1 -1 -1 -1 -1 -1 -1 -1 -1 -1 -1 -1 -1 -1 -1 -1 -1 -1 -1 -1 -1 -1 -1 -1 -1 -1 -1 -1 -1 -1 -1 -1 -1 -1 -1 -1 -1 -1 -1 -1 -1 -1 -1 -1 -1 -1 -1 -1 -1 -1 -1 -1 -1 -1 -1 -1 -1 -1 -1 -1 -1 -1 -1 -1 -1 -1 -1 -1 -1 -1 -1 -1 -1 -1 -1 -1 -1 -1 -1 -1 -1 -1 -1 -1 -1 -1 -1 -1 -1 -1 -1 -1 -1 -1 -1 -1 -1 -1 -1 -1 -1 -1 -1 -1 -1 -1 -1 -1 -1 -1 -1 -1 -1 -1 -1 -1 -1 -1 -1 -1 -1 -1 -1 -1 -1 -1 -1 -1 -1 -1 -1 -1 -1 -1 -1 -1 -1 -1 -1 -1 -1 -1 -1 -1 -1 -1 -1 -1 -1 -1 -1 -1 -1 -1 -1 -1 -1 -1 -1 -1 -1 -1 -1 -1 -1 -1 -1 -1 -1 -1 -1 -1 -1 -1 -1 -1 -1 -1 -1 -1 -1 -1 -1 -1 -1 -1 -1 -1 -1 -1 -1 -1 -1 -1 -1 -1 -1 -1 -1 -1 -1 -1 -1 -1 -1 -1 -1 -1 -1 -1 -1 -1 -1 -1 -1 -1 -1 -1 -1 -1 -1 -1 -1 -1 -1 -1 -1 -1 -1 -1 -1 -1 -1 -1 -1 -1 -1 -1 -1 -1 -1 -1 -1 -1 -1 -1 -1 -1 -1 -1 -1 -1 -1 -1 -1 -1 -1 -1 -1 -1 -1 -1 -1 -1 -1 -1 -1 -1 -1 -1 -1 -1 -1 -1 -1 -1 -1 -1 -1 -1 -1 -1 -1 -1 -1 -1 -1 -1 -1 -1 -1 -1 -1 -1 -1 -1 -1 -1 -1 -1 -1 -1 -1 -1 -1 -1 -1 -1 -1 -1 -1 -1 -1 -1 -1 -1 -1 -1 -1 -1 -1 -1 -1 -1 -1 -1 -1 -1 -1 -1 -1 -1 -1 -1 -1 -1 -1 -1 -1 -1 -1 -1 


