# vtk DataFile Version 3.0
Triangulation generated with deal.II
ASCII
DATASET UNSTRUCTURED_GRID
POINTS 27 double
-1 -1 -1
1 -1 -1
-1 1 -1
1 1 -1
-1 -1 1
1 -1 1
-1 1 1
1 1 1
0 -1 -1
-1 0 -1
-1 -1 0
1 0 -1
1 -1 0
0 1 -1
-1 1 0
1 1 0
0 -1 1
-1 0 1
1 0 1
0 1 1
0 -1 0
0 0 -1
-1 0 0
1 0 0
0 1 0
0 0 1
0 0 0

CELLS 8 72
8 0 8 21 9 10 20 26 22
8 8 1 11 21 20 12 23 26
8 9 21 13 2 22 26 24 14
8 21 11 3 13 26 23 15 24
8 10 20 26 22 4 16 25 17
8 20 12 23 26 16 5 18 25
8 22 26 24 14 17 25 19 6
8 26 23 15 24 25 18 7 19

CELL_TYPES 8
12 12 12 12 12 12 12 12 



CELL_DATA 8
SCALARS MaterialID int 1
LOOKUP_TABLE default
0 0 0 0 0 0 0 0 



SCALARS ManifoldID int 1
LOOKUP_TABLE default
-1 -1 -1 -1 -1 -1 -1 -1 


