<?xml version="1.0"?>
<VTKFile type="UnstructuredGrid" version="0.1" byte_order="LittleEndian">
   <UnstructuredGrid>
      <Piece NumberOfPoints="36" NumberOfCells="0" >
         <Points>
            <DataArray type="Float64" Name="Position" NumberOfComponents="3" format="ascii">
               0  -0.01  0
               0  -0.00666667  0
               0  -0.00333333  0
               0  0  0
               0  0.00333333  0
               0  0.00666667  0
               0  0.01  0
               0.2  -0.01  0
               0.2  -0.00666667  0
               0.2  -0.00333333  0
               0.2  0  0
               0.2  0.00333333  0
               0.2  0.00666667  0
               0.2  0.01  0
               0.0166667  -0.01  0
               0.0333333  -0.01  0
               0.05  -0.01  0
               0.0666667  -0.01  0
               0.0833333  -0.01  0
               0.1  -0.01  0
               0.116667  -0.01  0
               0.133333  -0.01  0
               0.15  -0.01  0
               0.166667  -0.01  0
               0.183333  -0.01  0
               0.0166667  0.01  0
               0.0333333  0.01  0
               0.05  0.01  0
               0.0666667  0.01  0
               0.0833333  0.01  0
               0.1  0.01  0
               0.116667  0.01  0
               0.133333  0.01  0
               0.15  0.01  0
               0.166667  0.01  0
               0.183333  0.01  0
            </DataArray>
         </Points>

         <Cells>
            <DataArray type="Int32" Name="connectivity" NumberOfComponents="1" format="ascii">

            </DataArray>
            <DataArray type="Int32" Name="offsets" NumberOfComponents="1" format="ascii">

            </DataArray>
            <DataArray type="UInt8"  Name="types" NumberOfComponents="1" format="ascii">

            </DataArray>
         </Cells>
         <PointData Scalars="Rank " Vectors="Displacement Force ">
            <DataArray type="UInt32" Name="Rank" NumberOfComponents="1" format="ascii">
               0 0 0 0 0 0 0 0 0 0 0 0 0 0 0 0 0 0 0 0 0 0 0 0 0 0 0 0 0 0 0 0 0 0 0 0
            </DataArray>
            <DataArray type="Float64" Name="Displacement" NumberOfComponents="3" format="ascii">
               -1.14025e-07 6.50086e-13 0.0  -7.60167e-08 4.3339e-13 0.0  -3.80083e-08 2.16695e-13 0.0  0 0 0.0  3.80083e-08 -2.16695e-13 0.0  7.60167e-08 -4.3339e-13 0.0  1.14025e-07 -6.50086e-13 0.0  -1.14038e-07 -2.2805e-06 0.0  -7.60297e-08 -2.2805e-06 0.0  -3.80213e-08 -2.2805e-06 0.0  -1.30017e-11 -2.2805e-06 0.0  3.79953e-08 -2.2805e-06 0.0  7.60037e-08 -2.2805e-06 0.0  1.14012e-07 -2.2805e-06 0.0  -1.14026e-07 -1.90041e-07 0.0  -1.14027e-07 -3.80083e-07 0.0  -1.14028e-07 -5.70125e-07 0.0  -1.14029e-07 -7.60166e-07 0.0  -1.1403e-07 -9.50208e-07 0.0  -1.14032e-07 -1.14025e-06 0.0  -1.14033e-07 -1.33029e-06 0.0  -1.14034e-07 -1.52033e-06 0.0  -1.14035e-07 -1.71037e-06 0.0  -1.14036e-07 -1.90042e-06 0.0  -1.14037e-07 -2.09046e-06 0.0  1.14024e-07 -1.90042e-07 0.0  1.14023e-07 -3.80084e-07 0.0  1.14022e-07 -5.70126e-07 0.0  1.14021e-07 -7.60168e-07 0.0  1.1402e-07 -9.50209e-07 0.0  1.14019e-07 -1.14025e-06 0.0  1.14017e-07 -1.33029e-06 0.0  1.14016e-07 -1.52033e-06 0.0  1.14015e-07 -1.71038e-06 0.0  1.14014e-07 -1.90042e-06 0.0  1.14013e-07 -2.09046e-06 0.0
            </DataArray>
            <DataArray type="Float64" Name="Force" NumberOfComponents="3" format="ascii">
               1.75419 -16.7231 0.0  -12.8568 -1.26992 0.0  -13.3145 -1.58881 0.0  3.80658 0.000221714 0.0  -13.3097 1.58679 0.0  -12.8529 1.26528 0.0  1.75287 16.7073 0.0  -0.951461 -11.1804 0.0  8.95315 -0.803505 0.0  9.2165 -1.05921 0.0  -2.63545 2.36502e-06 0.0  9.2122 1.05889 0.0  8.94969 0.802955 0.0  -0.949674 11.1814 0.0  0.592857 -40.6271 0.0  0.396418 -36.868 0.0  0.401757 -36.7624 0.0  0.406549 -34.6273 0.0  0.414373 -33.1951 0.0  0.418923 -32.0136 0.0  0.423452 -31.0337 0.0  0.427428 -30.2491 0.0  0.443495 -29.9355 0.0  0.436974 -27.8752 0.0  0.539763 -28.1788 0.0  0.596456 40.5803 0.0  0.400433 36.8498 0.0  0.405495 36.752 0.0  0.409789 34.6226 0.0  0.417365 33.1944 0.0  0.42165 32.0155 0.0  0.425909 31.0372 0.0  0.429662 30.2535 0.0  0.445399 29.9404 0.0  0.438239 27.8798 0.0  0.539879 28.1816 0.0
            </DataArray>
         </PointData>
      </Piece>
   </UnstructuredGrid>
</VTKFile>
