<?xml version="1.0"?>
<VTKFile type="UnstructuredGrid" version="0.1" byte_order="LittleEndian">
   <UnstructuredGrid>
      <Piece NumberOfPoints="36" NumberOfCells="0" >
         <Points>
            <DataArray type="Float64" Name="Position" NumberOfComponents="3" format="ascii">
               0  -0.01  0
               0  -0.00666667  0
               0  -0.00333333  0
               0  0  0
               0  0.00333333  0
               0  0.00666667  0
               0  0.01  0
               0.2  -0.01  0
               0.2  -0.00666667  0
               0.2  -0.00333333  0
               0.2  0  0
               0.2  0.00333333  0
               0.2  0.00666667  0
               0.2  0.01  0
               0.0166667  -0.01  0
               0.0333333  -0.01  0
               0.05  -0.01  0
               0.0666667  -0.01  0
               0.0833333  -0.01  0
               0.1  -0.01  0
               0.116667  -0.01  0
               0.133333  -0.01  0
               0.15  -0.01  0
               0.166667  -0.01  0
               0.183333  -0.01  0
               0.0166667  0.01  0
               0.0333333  0.01  0
               0.05  0.01  0
               0.0666667  0.01  0
               0.0833333  0.01  0
               0.1  0.01  0
               0.116667  0.01  0
               0.133333  0.01  0
               0.15  0.01  0
               0.166667  0.01  0
               0.183333  0.01  0
            </DataArray>
         </Points>

         <Cells>
            <DataArray type="Int32" Name="connectivity" NumberOfComponents="1" format="ascii">

            </DataArray>
            <DataArray type="Int32" Name="offsets" NumberOfComponents="1" format="ascii">

            </DataArray>
            <DataArray type="UInt8"  Name="types" NumberOfComponents="1" format="ascii">

            </DataArray>
         </Cells>
         <PointData Scalars="Rank " Vectors="Displacement Force ">
            <DataArray type="UInt32" Name="Rank" NumberOfComponents="1" format="ascii">
               0 0 0 0 0 0 0 0 0 0 0 0 0 0 0 0 0 0 0 0 0 0 0 0 0 0 0 0 0 0 0 0 0 0 0 0
            </DataArray>
            <DataArray type="Float64" Name="Displacement" NumberOfComponents="3" format="ascii">
               -2.3094e-07 2.66667e-12 0.0  -1.5396e-07 1.77778e-12 0.0  -7.698e-08 8.88889e-13 0.0  0 0 0.0  7.698e-08 -8.88889e-13 0.0  1.5396e-07 -1.77778e-12 0.0  2.3094e-07 -2.66667e-12 0.0  -2.30993e-07 -4.6188e-06 0.0  -1.54013e-07 -4.6188e-06 0.0  -7.70334e-08 -4.6188e-06 0.0  -5.33333e-11 -4.6188e-06 0.0  7.69267e-08 -4.6188e-06 0.0  1.53907e-07 -4.6188e-06 0.0  2.30887e-07 -4.6188e-06 0.0  -2.30944e-07 -3.84897e-07 0.0  -2.30949e-07 -7.69798e-07 0.0  -2.30953e-07 -1.1547e-06 0.0  -2.30958e-07 -1.5396e-06 0.0  -2.30962e-07 -1.9245e-06 0.0  -2.30967e-07 -2.3094e-06 0.0  -2.30971e-07 -2.6943e-06 0.0  -2.30976e-07 -3.0792e-06 0.0  -2.3098e-07 -3.4641e-06 0.0  -2.30984e-07 -3.849e-06 0.0  -2.30989e-07 -4.2339e-06 0.0  2.30936e-07 -3.84903e-07 0.0  2.30931e-07 -7.69803e-07 0.0  2.30927e-07 -1.1547e-06 0.0  2.30922e-07 -1.5396e-06 0.0  2.30918e-07 -1.9245e-06 0.0  2.30913e-07 -2.3094e-06 0.0  2.30909e-07 -2.6943e-06 0.0  2.30904e-07 -3.0792e-06 0.0  2.309e-07 -3.4641e-06 0.0  2.30896e-07 -3.849e-06 0.0  2.30891e-07 -4.2339e-06 0.0
            </DataArray>
            <DataArray type="Float64" Name="Force" NumberOfComponents="3" format="ascii">
               -0.010454 0.35667 0.0  1.44817 0.0299931 0.0  1.45597 0.040197 0.0  -0.410766 0.000247394 0.0  1.45572 -0.0433357 0.0  1.44949 -0.0370206 0.0  -0.00643233 -0.379647 0.0  0.0948169 0.117868 0.0  0.228084 -0.00589869 0.0  0.212771 -0.000143941 0.0  -0.0554763 5.10941e-05 0.0  0.213281 -0.000369175 0.0  0.226979 0.00499607 0.0  0.0921805 -0.116468 0.0  0.533227 0.811591 0.0  0.316666 0.972408 0.0  0.312397 1.18286 0.0  0.317112 1.15037 0.0  0.329014 1.11396 0.0  0.336844 1.05631 0.0  0.344267 0.973788 0.0  0.350967 0.875483 0.0  0.366779 0.765216 0.0  0.366897 0.590638 0.0  0.449403 0.406929 0.0  0.537706 -0.887893 0.0  0.321931 -1.01579 0.0  0.316451 -1.21132 0.0  0.320031 -1.16897 0.0  0.331666 -1.12603 0.0  0.339606 -1.06396 0.0  0.346553 -0.977682 0.0  0.352524 -0.87643 0.0  0.367989 -0.763976 0.0  0.367866 -0.588122 0.0  0.449845 -0.404592 0.0
            </DataArray>
         </PointData>
      </Piece>
   </UnstructuredGrid>
</VTKFile>
