<?xml version="1.0"?>
<VTKFile type="UnstructuredGrid" version="0.1" byte_order="LittleEndian">
   <UnstructuredGrid>
      <Piece NumberOfPoints="36" NumberOfCells="0" >
         <Points>
            <DataArray type="Float64" Name="Position" NumberOfComponents="3" format="ascii">
               0  -0.01  0
               0  -0.00666667  0
               0  -0.00333333  0
               0  0  0
               0  0.00333333  0
               0  0.00666667  0
               0  0.01  0
               0.2  -0.01  0
               0.2  -0.00666667  0
               0.2  -0.00333333  0
               0.2  0  0
               0.2  0.00333333  0
               0.2  0.00666667  0
               0.2  0.01  0
               0.0166667  -0.01  0
               0.0333333  -0.01  0
               0.05  -0.01  0
               0.0666667  -0.01  0
               0.0833333  -0.01  0
               0.1  -0.01  0
               0.116667  -0.01  0
               0.133333  -0.01  0
               0.15  -0.01  0
               0.166667  -0.01  0
               0.183333  -0.01  0
               0.0166667  0.01  0
               0.0333333  0.01  0
               0.05  0.01  0
               0.0666667  0.01  0
               0.0833333  0.01  0
               0.1  0.01  0
               0.116667  0.01  0
               0.133333  0.01  0
               0.15  0.01  0
               0.166667  0.01  0
               0.183333  0.01  0
            </DataArray>
         </Points>

         <Cells>
            <DataArray type="Int32" Name="connectivity" NumberOfComponents="1" format="ascii">

            </DataArray>
            <DataArray type="Int32" Name="offsets" NumberOfComponents="1" format="ascii">

            </DataArray>
            <DataArray type="UInt8"  Name="types" NumberOfComponents="1" format="ascii">

            </DataArray>
         </Cells>
         <PointData Scalars="Rank " Vectors="Displacement Force ">
            <DataArray type="UInt32" Name="Rank" NumberOfComponents="1" format="ascii">
               0 0 0 0 0 0 0 0 0 0 0 0 0 0 0 0 0 0 0 0 0 0 0 0 0 0 0 0 0 0 0 0 0 0 0 0
            </DataArray>
            <DataArray type="Float64" Name="Displacement" NumberOfComponents="3" format="ascii">
               2.17685e-07 2.36935e-12 0.0  1.45124e-07 1.57957e-12 0.0  7.25618e-08 7.89783e-13 0.0  0 0 0.0  -7.25618e-08 -7.89783e-13 0.0  -1.45124e-07 -1.57957e-12 0.0  -2.17685e-07 -2.36935e-12 0.0  2.17638e-07 4.35371e-06 0.0  1.45076e-07 4.35371e-06 0.0  7.25144e-08 4.35371e-06 0.0  -4.7387e-11 4.35371e-06 0.0  -7.26092e-08 4.35371e-06 0.0  -1.45171e-07 4.35371e-06 0.0  -2.17733e-07 4.35371e-06 0.0  2.17682e-07 3.62811e-07 0.0  2.17678e-07 7.25621e-07 0.0  2.17674e-07 1.08843e-06 0.0  2.1767e-07 1.45124e-06 0.0  2.17666e-07 1.81405e-06 0.0  2.17662e-07 2.17686e-06 0.0  2.17658e-07 2.53967e-06 0.0  2.17654e-07 2.90248e-06 0.0  2.1765e-07 3.26528e-06 0.0  2.17646e-07 3.62809e-06 0.0  2.17642e-07 3.9909e-06 0.0  -2.17689e-07 3.62807e-07 0.0  -2.17693e-07 7.25616e-07 0.0  -2.17697e-07 1.08842e-06 0.0  -2.17701e-07 1.45123e-06 0.0  -2.17705e-07 1.81404e-06 0.0  -2.17709e-07 2.17685e-06 0.0  -2.17713e-07 2.53966e-06 0.0  -2.17717e-07 2.90247e-06 0.0  -2.17721e-07 3.26528e-06 0.0  -2.17725e-07 3.62809e-06 0.0  -2.17729e-07 3.9909e-06 0.0
            </DataArray>
            <DataArray type="Float64" Name="Force" NumberOfComponents="3" format="ascii">
               0.00192077 0.152305 0.0  1.26714 0.0199705 0.0  1.27656 0.0271712 0.0  -0.36161 0.000695282 0.0  1.27741 -0.0336457 0.0  1.27069 -0.0341961 0.0  0.00999139 -0.196662 0.0  0.0677683 -0.0152358 0.0  0.192108 -0.015859 0.0  0.181408 -0.0136648 0.0  -0.0479181 -1.17356e-05 0.0  0.181613 0.0134298 0.0  0.192316 0.0146318 0.0  0.068594 0.0163571 0.0  0.479895 0.263197 0.0  0.258509 0.304476 0.0  0.229608 0.41182 0.0  0.215656 0.435057 0.0  0.219933 0.439634 0.0  0.229605 0.431807 0.0  0.241513 0.402182 0.0  0.252878 0.349255 0.0  0.27129 0.274831 0.0  0.276676 0.163621 0.0  0.341726 0.0287939 0.0  0.491458 -0.420453 0.0  0.26999 -0.404794 0.0  0.238658 -0.469975 0.0  0.220102 -0.469606 0.0  0.224414 -0.476526 0.0  0.233763 -0.465332 0.0  0.245493 -0.429526 0.0  0.256507 -0.370352 0.0  0.274514 -0.290219 0.0  0.279333 -0.17336 0.0  0.343881 -0.034171 0.0
            </DataArray>
         </PointData>
      </Piece>
   </UnstructuredGrid>
</VTKFile>
