<?xml version="1.0"?>
<VTKFile type="UnstructuredGrid" version="0.1" byte_order="LittleEndian">
   <UnstructuredGrid>
      <Piece NumberOfPoints="36" NumberOfCells="0" >
         <Points>
            <DataArray type="Float64" Name="Position" NumberOfComponents="3" format="ascii">
               0  -0.01  0
               0  -0.00666667  0
               0  -0.00333333  0
               0  0  0
               0  0.00333333  0
               0  0.00666667  0
               0  0.01  0
               0.2  -0.01  0
               0.2  -0.00666667  0
               0.2  -0.00333333  0
               0.2  0  0
               0.2  0.00333333  0
               0.2  0.00666667  0
               0.2  0.01  0
               0.0166667  -0.01  0
               0.0333333  -0.01  0
               0.05  -0.01  0
               0.0666667  -0.01  0
               0.0833333  -0.01  0
               0.1  -0.01  0
               0.116667  -0.01  0
               0.133333  -0.01  0
               0.15  -0.01  0
               0.166667  -0.01  0
               0.183333  -0.01  0
               0.0166667  0.01  0
               0.0333333  0.01  0
               0.05  0.01  0
               0.0666667  0.01  0
               0.0833333  0.01  0
               0.1  0.01  0
               0.116667  0.01  0
               0.133333  0.01  0
               0.15  0.01  0
               0.166667  0.01  0
               0.183333  0.01  0
            </DataArray>
         </Points>

         <Cells>
            <DataArray type="Int32" Name="connectivity" NumberOfComponents="1" format="ascii">

            </DataArray>
            <DataArray type="Int32" Name="offsets" NumberOfComponents="1" format="ascii">

            </DataArray>
            <DataArray type="UInt8"  Name="types" NumberOfComponents="1" format="ascii">

            </DataArray>
         </Cells>
         <PointData Scalars="Rank " Vectors="Displacement Force ">
            <DataArray type="UInt32" Name="Rank" NumberOfComponents="1" format="ascii">
               0 0 0 0 0 0 0 0 0 0 0 0 0 0 0 0 0 0 0 0 0 0 0 0 0 0 0 0 0 0 0 0 0 0 0 0
            </DataArray>
            <DataArray type="Float64" Name="Displacement" NumberOfComponents="3" format="ascii">
               3.67414e-06 6.74964e-10 0.0  2.44943e-06 4.49976e-10 0.0  1.22471e-06 2.24988e-10 0.0  0 0 0.0  -1.22471e-06 -2.24988e-10 0.0  -2.44943e-06 -4.49976e-10 0.0  -3.67414e-06 -6.74964e-10 0.0  3.66064e-06 7.34834e-05 0.0  2.43593e-06 7.34832e-05 0.0  1.21121e-06 7.3483e-05 0.0  -1.34993e-08 7.34828e-05 0.0  -1.23821e-06 7.34825e-05 0.0  -2.46292e-06 7.34823e-05 0.0  -3.68764e-06 7.34821e-05 0.0  3.67301e-06 6.12424e-06 0.0  3.67189e-06 1.22478e-05 0.0  3.67076e-06 1.83714e-05 0.0  3.66964e-06 2.44949e-05 0.0  3.66851e-06 3.06185e-05 0.0  3.66739e-06 3.67421e-05 0.0  3.66626e-06 4.28656e-05 0.0  3.66514e-06 4.89892e-05 0.0  3.66401e-06 5.51127e-05 0.0  3.66289e-06 6.12363e-05 0.0  3.66176e-06 6.73599e-05 0.0  -3.67526e-06 6.12289e-06 0.0  -3.67639e-06 1.22465e-05 0.0  -3.67751e-06 1.837e-05 0.0  -3.67864e-06 2.44936e-05 0.0  -3.67976e-06 3.06171e-05 0.0  -3.68089e-06 3.67407e-05 0.0  -3.68201e-06 4.28643e-05 0.0  -3.68314e-06 4.89878e-05 0.0  -3.68426e-06 5.51114e-05 0.0  -3.68539e-06 6.1235e-05 0.0  -3.68651e-06 6.73585e-05 0.0
            </DataArray>
            <DataArray type="Float64" Name="Force" NumberOfComponents="3" format="ascii">
               0.00958785 0.0747744 0.0  1.21194 0.0124231 0.0  1.22335 0.019973 0.0  -0.349554 0.000498698 0.0  1.23304 -0.0287452 0.0  1.22187 -0.0330058 0.0  0.0145528 -0.1435 0.0  0.0534893 -0.0705857 0.0  0.201744 -0.0194187 0.0  0.19284 -0.0179599 0.0  -0.0531724 -7.37197e-05 0.0  0.196049 0.0185427 0.0  0.20496 0.018041 0.0  0.0562626 0.0697914 0.0  0.47202 0.0596837 0.0  0.251206 0.143138 0.0  0.228488 0.249483 0.0  0.205631 0.244717 0.0  0.202438 0.243532 0.0  0.205333 0.224104 0.0  0.211697 0.187461 0.0  0.219659 0.137085 0.0  0.235293 0.07098 0.0  0.241149 -0.0138697 0.0  0.298637 -0.12814 0.0  0.489122 -0.302347 0.0  0.266726 -0.294745 0.0  0.238563 -0.372687 0.0  0.216716 -0.357445 0.0  0.21134 -0.333097 0.0  0.212768 -0.298097 0.0  0.218162 -0.250857 0.0  0.226132 -0.191091 0.0  0.241953 -0.115736 0.0  0.247451 -0.0190777 0.0  0.305483 0.106499 0.0
            </DataArray>
         </PointData>
      </Piece>
   </UnstructuredGrid>
</VTKFile>
