<?xml version="1.0"?>
<VTKFile type="UnstructuredGrid" version="0.1" byte_order="LittleEndian">
   <UnstructuredGrid>
      <Piece NumberOfPoints="36" NumberOfCells="0" >
         <Points>
            <DataArray type="Float64" Name="Position" NumberOfComponents="3" format="ascii">
               0  -0.01  0
               0  -0.00666667  0
               0  -0.00333333  0
               0  0  0
               0  0.00333333  0
               0  0.00666667  0
               0  0.01  0
               0.2  -0.01  0
               0.2  -0.00666667  0
               0.2  -0.00333333  0
               0.2  0  0
               0.2  0.00333333  0
               0.2  0.00666667  0
               0.2  0.01  0
               0.0166667  -0.01  0
               0.0333333  -0.01  0
               0.05  -0.01  0
               0.0666667  -0.01  0
               0.0833333  -0.01  0
               0.1  -0.01  0
               0.116667  -0.01  0
               0.133333  -0.01  0
               0.15  -0.01  0
               0.166667  -0.01  0
               0.183333  -0.01  0
               0.0166667  0.01  0
               0.0333333  0.01  0
               0.05  0.01  0
               0.0666667  0.01  0
               0.0833333  0.01  0
               0.1  0.01  0
               0.116667  0.01  0
               0.133333  0.01  0
               0.15  0.01  0
               0.166667  0.01  0
               0.183333  0.01  0
            </DataArray>
         </Points>

         <Cells>
            <DataArray type="Int32" Name="connectivity" NumberOfComponents="1" format="ascii">

            </DataArray>
            <DataArray type="Int32" Name="offsets" NumberOfComponents="1" format="ascii">

            </DataArray>
            <DataArray type="UInt8"  Name="types" NumberOfComponents="1" format="ascii">

            </DataArray>
         </Cells>
         <PointData Scalars="Rank " Vectors="Displacement Force ">
            <DataArray type="UInt32" Name="Rank" NumberOfComponents="1" format="ascii">
               0 0 0 0 0 0 0 0 0 0 0 0 0 0 0 0 0 0 0 0 0 0 0 0 0 0 0 0 0 0 0 0 0 0 0 0
            </DataArray>
            <DataArray type="Float64" Name="Displacement" NumberOfComponents="3" format="ascii">
               -2.58767e-07 3.34802e-12 0.0  -1.72511e-07 2.23201e-12 0.0  -8.62557e-08 1.11601e-12 0.0  0 0 0.0  8.62557e-08 -1.11601e-12 0.0  1.72511e-07 -2.23201e-12 0.0  2.58767e-07 -3.34802e-12 0.0  -2.58834e-07 -5.17534e-06 0.0  -1.72578e-07 -5.17534e-06 0.0  -8.63226e-08 -5.17534e-06 0.0  -6.69604e-11 -5.17534e-06 0.0  8.61887e-08 -5.17534e-06 0.0  1.72444e-07 -5.17534e-06 0.0  2.587e-07 -5.17534e-06 0.0  -2.58773e-07 -4.31275e-07 0.0  -2.58778e-07 -8.62554e-07 0.0  -2.58784e-07 -1.29383e-06 0.0  -2.58789e-07 -1.72511e-06 0.0  -2.58795e-07 -2.15639e-06 0.0  -2.58801e-07 -2.58767e-06 0.0  -2.58806e-07 -3.01895e-06 0.0  -2.58812e-07 -3.45022e-06 0.0  -2.58817e-07 -3.8815e-06 0.0  -2.58823e-07 -4.31278e-06 0.0  -2.58828e-07 -4.74406e-06 0.0  2.58761e-07 -4.31282e-07 0.0  2.58756e-07 -8.6256e-07 0.0  2.5875e-07 -1.29384e-06 0.0  2.58745e-07 -1.72512e-06 0.0  2.58739e-07 -2.1564e-06 0.0  2.58734e-07 -2.58767e-06 0.0  2.58728e-07 -3.01895e-06 0.0  2.58722e-07 -3.45023e-06 0.0  2.58717e-07 -3.88151e-06 0.0  2.58711e-07 -4.31279e-06 0.0  2.58706e-07 -4.74407e-06 0.0
            </DataArray>
            <DataArray type="Float64" Name="Force" NumberOfComponents="3" format="ascii">
               -0.00667829 0.268147 0.0  1.36822 0.0281206 0.0  1.38208 0.0364872 0.0  -0.392931 0.000392881 0.0  1.3827 -0.0406859 0.0  1.3705 -0.0373311 0.0  -0.00142876 -0.297361 0.0  0.0839473 0.0583014 0.0  0.196237 -0.010145 0.0  0.183419 -0.00613215 0.0  -0.0482527 4.64955e-05 0.0  0.183542 0.0055855 0.0  0.195515 0.00908554 0.0  0.0827451 -0.0566625 0.0  0.498858 0.539117 0.0  0.278878 0.607773 0.0  0.26325 0.785798 0.0  0.261685 0.798528 0.0  0.273738 0.795966 0.0  0.284625 0.770014 0.0  0.295223 0.711289 0.0  0.303817 0.632376 0.0  0.320716 0.537113 0.0  0.323316 0.390614 0.0  0.397564 0.232801 0.0  0.505238 -0.638336 0.0  0.285445 -0.666476 0.0  0.269361 -0.825518 0.0  0.266149 -0.825179 0.0  0.277238 -0.815827 0.0  0.287783 -0.784214 0.0  0.297843 -0.72079 0.0  0.306059 -0.637838 0.0  0.322537 -0.539431 0.0  0.324514 -0.390673 0.0  0.398148 -0.231661 0.0
            </DataArray>
         </PointData>
      </Piece>
   </UnstructuredGrid>
</VTKFile>
