<?xml version="1.0"?>
<VTKFile type="UnstructuredGrid" version="0.1" byte_order="LittleEndian">
   <UnstructuredGrid>
      <Piece NumberOfPoints="36" NumberOfCells="0" >
         <Points>
            <DataArray type="Float64" Name="Position" NumberOfComponents="3" format="ascii">
               0  -0.01  0
               0  -0.00666667  0
               0  -0.00333333  0
               0  0  0
               0  0.00333333  0
               0  0.00666667  0
               0  0.01  0
               0.2  -0.01  0
               0.2  -0.00666667  0
               0.2  -0.00333333  0
               0.2  0  0
               0.2  0.00333333  0
               0.2  0.00666667  0
               0.2  0.01  0
               0.0166667  -0.01  0
               0.0333333  -0.01  0
               0.05  -0.01  0
               0.0666667  -0.01  0
               0.0833333  -0.01  0
               0.1  -0.01  0
               0.116667  -0.01  0
               0.133333  -0.01  0
               0.15  -0.01  0
               0.166667  -0.01  0
               0.183333  -0.01  0
               0.0166667  0.01  0
               0.0333333  0.01  0
               0.05  0.01  0
               0.0666667  0.01  0
               0.0833333  0.01  0
               0.1  0.01  0
               0.116667  0.01  0
               0.133333  0.01  0
               0.15  0.01  0
               0.166667  0.01  0
               0.183333  0.01  0
            </DataArray>
         </Points>

         <Cells>
            <DataArray type="Int32" Name="connectivity" NumberOfComponents="1" format="ascii">

            </DataArray>
            <DataArray type="Int32" Name="offsets" NumberOfComponents="1" format="ascii">

            </DataArray>
            <DataArray type="UInt8"  Name="types" NumberOfComponents="1" format="ascii">

            </DataArray>
         </Cells>
         <PointData Scalars="Rank " Vectors="Displacement Force ">
            <DataArray type="UInt32" Name="Rank" NumberOfComponents="1" format="ascii">
               0 0 0 0 0 0 0 0 0 0 0 0 0 0 0 0 0 0 0 0 0 0 0 0 0 0 0 0 0 0 0 0 0 0 0 0
            </DataArray>
            <DataArray type="Float64" Name="Displacement" NumberOfComponents="3" format="ascii">
               5.99776e-06 1.79865e-09 0.0  3.9985e-06 1.1991e-09 0.0  1.99925e-06 5.99551e-10 0.0  0 0 0.0  -1.99925e-06 -5.99551e-10 0.0  -3.9985e-06 -1.1991e-09 0.0  -5.99776e-06 -1.79865e-09 0.0  5.96178e-06 0.000119957 0.0  3.96253e-06 0.000119956 0.0  1.96328e-06 0.000119956 0.0  -3.59731e-08 0.000119955 0.0  -2.03523e-06 0.000119955 0.0  -4.03448e-06 0.000119954 0.0  -6.03373e-06 0.000119953 0.0  5.99476e-06 9.99806e-06 0.0  5.99176e-06 1.99943e-05 0.0  5.98876e-06 2.99906e-05 0.0  5.98577e-06 3.99868e-05 0.0  5.98277e-06 4.99831e-05 0.0  5.97977e-06 5.99794e-05 0.0  5.97677e-06 6.99756e-05 0.0  5.97377e-06 7.99719e-05 0.0  5.97078e-06 8.99681e-05 0.0  5.96778e-06 9.99644e-05 0.0  5.96478e-06 0.000109961 0.0  -6.00075e-06 9.99446e-06 0.0  -6.00375e-06 1.99907e-05 0.0  -6.00675e-06 2.9987e-05 0.0  -6.00975e-06 3.99832e-05 0.0  -6.01275e-06 4.99795e-05 0.0  -6.01574e-06 5.99758e-05 0.0  -6.01874e-06 6.9972e-05 0.0  -6.02174e-06 7.99683e-05 0.0  -6.02474e-06 8.99645e-05 0.0  -6.02773e-06 9.99608e-05 0.0  -6.03073e-06 0.000109957 0.0
            </DataArray>
            <DataArray type="Float64" Name="Force" NumberOfComponents="3" format="ascii">
               0.0104184 0.0612314 0.0  1.20458 0.0105723 0.0  1.21568 0.0187286 0.0  -0.347458 0.000717265 0.0  1.22648 -0.0281695 0.0  1.21567 -0.0332424 0.0  0.0156219 -0.137332 0.0  0.0502557 -0.0826316 0.0  0.204011 -0.0200042 0.0  0.195546 -0.018682 0.0  -0.0541169 -0.000135293 0.0  0.19984 0.019677 0.0  0.20832 0.0187557 0.0  0.0538509 0.081335 0.0  0.471159 0.0212239 0.0  0.248765 0.112753 0.0  0.227013 0.225028 0.0  0.205103 0.219545 0.0  0.201662 0.215873 0.0  0.203804 0.195268 0.0  0.208963 0.155531 0.0  0.215416 0.102025 0.0  0.229378 0.0331818 0.0  0.234183 -0.0499804 0.0  0.289181 -0.162015 0.0  0.490006 -0.292438 0.0  0.267371 -0.282279 0.0  0.238125 -0.356284 0.0  0.217212 -0.343611 0.0  0.211695 -0.319714 0.0  0.212485 -0.282419 0.0  0.216561 -0.230512 0.0  0.222991 -0.16596 0.0  0.237283 -0.086563 0.0  0.241879 0.0103 0.0  0.297946 0.13579 0.0
            </DataArray>
         </PointData>
      </Piece>
   </UnstructuredGrid>
</VTKFile>
