# vtk DataFile Version 4.2
vtk output
ASCII
DATASET UNSTRUCTURED_GRID
POINTS 438 float
0.000159205 0.0459595 1e-07 0.0910679 0.0459595 1e-07 0.000159205 0.0459595 0.0909088 
0.00016037 0.0462879 0.0909088 0.0910679 0.0459595 0.0909088 0.00387147 0.0486486 0.999996 
0.000160265 0.0467696 0.999996 0.00230119 0.0432031 0.999996 0.0412046 0.0349339 0.999996 
0.000161941 0.0467691 0.272726 0.000140272 0.0463638 0.272726 0.0114969 0.0345959 0.272726 
0.170587 0.0345959 0.272726 0.013112 0.0572077 0.272726 0.00884021 0.0726769 1e-07 
0.0315674 0.0891891 1e-07 0.0596597 0.0891891 1e-07 0.0823869 0.0726769 1e-07 
0.000159205 0.0459595 0.0227273 0.000159205 0.0459595 0.0454544 0.000159205 0.0459595 0.0681816 
0.000159502 0.0461237 0.0909088 0.00899528 0.072889 0.0909088 0.031755 0.0892496 0.0909088 
0.0597846 0.0891483 0.0909088 0.0824255 0.0726237 0.0909088 0.0910679 0.0459595 0.0227273 
0.0910679 0.0459595 0.0454544 0.0910679 0.0459595 0.0681816 0.00160779 0.0485161 0.999996 
0.000455632 0.0445206 0.999996 0.0217529 0.0390685 0.999996 0.022538 0.0417913 0.999996 
0.000149524 0.0465665 0.272726 0.00331992 0.0380684 0.272726 0.0380119 0.0345959 0.272726 
0.064527 0.0345959 0.272726 0.091042 0.0345959 0.272726 0.117557 0.0345959 0.272726 
0.144072 0.0345959 0.272726 0.165412 0.0346094 0.301817 0.160237 0.0346229 0.330908 
0.155061 0.0346364 0.359999 0.149886 0.03465 0.389089 0.144711 0.0346635 0.41818 
0.139535 0.034677 0.447271 0.13436 0.0346905 0.476362 0.129185 0.0347041 0.505452 
0.124009 0.0347176 0.534543 0.118834 0.0347311 0.563634 0.113659 0.0347446 0.592725 
0.108484 0.0347581 0.621816 0.103308 0.0347717 0.650906 0.0981329 0.0347852 0.679997 
0.0929576 0.0347987 0.709088 0.0877823 0.0348122 0.738179 0.082607 0.0348258 0.76727 
0.0774317 0.0348393 0.79636 0.0722564 0.0348528 0.825451 0.0670811 0.0348663 0.854542 
0.0619058 0.0348798 0.883633 0.0567305 0.0348934 0.912723 0.0515552 0.0349069 0.941814 
0.0463799 0.0349204 0.970905 0.000161649 0.0467691 0.301817 0.000161591 0.0467691 0.330908 
0.000161533 0.0467692 0.359999 0.000161476 0.0467692 0.389089 0.000161418 0.0467692 0.41818 
0.00016136 0.0467692 0.447271 0.000161303 0.0467693 0.476362 0.000161245 0.0467693 0.505452 
0.000161187 0.0467693 0.534543 0.00016113 0.0467693 0.563634 0.000161072 0.0467693 0.592725 
0.000161014 0.0467694 0.621816 0.000160957 0.0467694 0.650906 0.000160899 0.0467694 0.679997 
0.000160841 0.0467694 0.709088 0.000160784 0.0467694 0.738179 0.000160726 0.0467695 0.76727 
0.000160668 0.0467695 0.79636 0.000160611 0.0467695 0.825451 0.000160553 0.0467695 0.854542 
0.000160496 0.0467695 0.883633 0.000160438 0.0467696 0.912723 0.00016038 0.0467696 0.941814 
0.000160323 0.0467696 0.970905 0.144341 0.0383645 0.272726 0.118095 0.0421331 0.272726 
0.0918496 0.0459018 0.272726 0.0656037 0.0496704 0.272726 0.0393579 0.053439 0.272726 
0.00436536 0.0548066 0.272726 0.180351 0.0355659 0.247124 0.182875 0.0368583 0.219969 
0.173208 0.0384602 0.194627 0.154249 0.0400661 0.174948 0.132548 0.0415865 0.158194 
0.11193 0.0430953 0.140165 0.0966293 0.0446053 0.117586 0.000150027 0.0463529 0.246752 
0.000156511 0.0463421 0.220778 0.000160309 0.0463312 0.194804 0.000162009 0.0463204 0.168831 
0.000162195 0.0463096 0.142857 0.000161453 0.0462987 0.116883 0.0823869 0.0192421 0.0909088 
0.0596597 0.0027298 0.0909088 0.0315674 0.0027298 0.0909088 0.00884021 0.0192421 0.0909088 
0.0823869 0.0192421 1e-07 0.0596597 0.0027298 1e-07 0.0315674 0.0027298 1e-07 
0.00884021 0.0192421 1e-07 0.022007 0.0848031 0.0454914 0.0692455 0.0847877 0.0454214 
0.0452949 0.0914127 0.0271469 0.0459833 0.0914123 0.0637238 0.00531043 0.0669774 0.035351 
0.085921 0.0669692 0.0555544 0.00700601 0.0699502 0.0640866 0.0842291 0.0699374 0.0268326 
0.0163605 0.0807496 0.0206193 0.0748968 0.0807242 0.070268 0.0236776 0.0857704 0.0689787 
0.0675852 0.0857507 0.0219677 0.00230989 0.0597758 0.0793263 0.00327545 0.0624998 0.0154839 
0.0879556 0.0624896 0.0754086 0.0890093 0.0594839 0.0113637 0.0803777 0.0351106 0.353367 
0.0688654 0.0356498 0.428232 0.0618082 0.0361449 0.498045 0.057824 0.0364874 0.549321 
0.0527641 0.0368941 0.608927 0.0474462 0.0373114 0.668037 0.041951 0.0350394 0.319395 
0.115569 0.0347948 0.323253 0.0414538 0.0356544 0.386673 0.100612 0.035131 0.393609 
0.0431123 0.0376702 0.723615 0.0912257 0.0354629 0.465921 0.0373999 0.0363523 0.461155 
0.0399376 0.0379288 0.773704 0.0782444 0.0348457 0.309233 0.0827898 0.0357801 0.536735 
0.0353389 0.037002 0.535231 0.116822 0.034889 0.356267 0.0343723 0.038372 0.820141 
0.0247109 0.0349224 0.302868 0.106022 0.035165 0.432543 0.0767264 0.0360101 0.593702 
0.0292875 0.0376123 0.589863 0.033274 0.0360396 0.419407 0.032237 0.038499 0.865279 
0.0231959 0.0354815 0.354422 0.100408 0.0353344 0.501298 0.0707996 0.0362194 0.650396 
0.0271837 0.0368435 0.494902 0.0258598 0.0385388 0.695679 0.0227554 0.038307 0.644748 
0.0270534 0.0390052 0.897763 0.0520988 0.0348122 0.297217 0.0745022 0.0353256 0.38263 
0.0858047 0.0357151 0.566139 0.0636054 0.0364942 0.700337 0.057738 0.036706 0.750517 
0.135076 0.0346796 0.304008 0.0240181 0.0389874 0.749708 0.0266937 0.0374517 0.560793 
0.00520328 0.0365679 0.283682 0.0247755 0.0391872 0.928249 0.103278 0.0347228 0.297726 
0.0654269 0.0358589 0.456729 0.0787566 0.0359195 0.623583 0.010981 0.0413636 0.984008 
0.0220582 0.0394376 0.958114 0.0544334 0.0353446 0.362264 0.0207287 0.0396925 0.840616 
0.0469618 0.0370862 0.841938 0.134641 0.0347456 0.336506 0.024711 0.0380005 0.617361 
0.0655712 0.0350455 0.331397 0.0179275 0.036001 0.398455 0.0738162 0.0360257 0.675672 
0.0597173 0.0363206 0.523982 0.112552 0.0350935 0.459507 0.021603 0.0385671 0.670112 
0.124493 0.0348831 0.383215 0.0913972 0.0349248 0.330381 0.0196008 0.0351718 0.32427 
0.0521036 0.0369097 0.79781 0.0609679 0.0355978 0.404549 0.0969276 0.0350879 0.372729 
0.120565 0.0349548 0.412445 0.0305509 0.0375729 0.983062 0.0178061 0.0392036 0.723548 
0.0216662 0.0394111 0.795517 0.0669643 0.0362186 0.724914 0.110725 0.0351256 0.482101 
0.0881811 0.0353428 0.414886 0.014853 0.0358015 0.377935 0.0465145 0.0360522 0.441799 
0.0551325 0.0366904 0.577781 0.0255271 0.0347315 0.285274 0.10336 0.0352323 0.544966 
0.085905 0.0354838 0.444305 0.0621691 0.0362316 0.779021 0.103163 0.035265 0.523838 
0.0203007 0.0364789 0.445842 0.0538326 0.0361942 0.479055 0.0777991 0.0347073 0.288636 
0.079875 0.0357274 0.485739 0.043671 0.0366043 0.508859 0.0174199 0.0368218 0.473796 
0.0185178 0.0372885 0.520727 0.0438032 0.0352217 0.340119 0.0942524 0.0353614 0.609188 
0.049849 0.0371042 0.635925 0.0787546 0.0358268 0.511465 0.0122279 0.0380547 0.577311 
0.017916 0.0395815 0.774958 0.0101214 0.035045 0.307017 0.041936 0.0372363 0.886515 
0.017373 0.0375191 0.540471 0.0816625 0.0458101 0.353933 0.0697337 0.046166 0.4284 
0.062726 0.0458882 0.498198 0.058729 0.0454984 0.549459 0.0536661 0.0451134 0.609058 
0.0482 0.0448116 0.668397 0.0432737 0.0521325 0.319382 0.114666 0.041603 0.320426 
0.101127 0.0420205 0.393683 0.0420568 0.0512124 0.386874 0.0437448 0.0443789 0.724949 
0.0917926 0.0418477 0.466012 0.0385843 0.0505074 0.461387 0.0407709 0.0438022 0.773842 
0.079086 0.0470538 0.309259 0.08336 0.0415696 0.536821 0.0365677 0.049561 0.535369 
0.123324 0.0394605 0.358102 0.0353155 0.0438426 0.820179 0.0261384 0.0548969 0.302877 
0.106451 0.0402958 0.432595 0.0772781 0.04122 0.593782 0.0305752 0.0496414 0.59002 
0.0345075 0.0518446 0.419586 0.0330432 0.0431502 0.865423 0.0246783 0.0543504 0.35468 
0.100801 0.039521 0.501361 0.0713252 0.040838 0.650479 0.0286014 0.0515726 0.495145 
0.0238126 0.049925 0.644902 0.0279889 0.0435541 0.897751 0.0532187 0.0510424 0.297179 
0.0759499 0.0461089 0.382625 0.0862777 0.0403341 0.566207 0.0641386 0.0408717 0.700437 
0.0582896 0.0406382 0.750749 0.0263164 0.0484936 0.697737 0.135032 0.0389736 0.3046 
0.0251038 0.0477382 0.750051 0.0280443 0.050585 0.56097 0.0257268 0.0432828 0.928139 
0.00943751 0.0569978 0.286637 0.103807 0.0436767 0.297624 0.0662884 0.0461437 0.456921 
0.0792184 0.0400866 0.623652 0.0123266 0.0459687 0.983872 0.0230557 0.0431557 0.957786 
0.0221042 0.0465385 0.840517 0.0475388 0.0402354 0.841885 0.0555401 0.0495788 0.362577 
0.132689 0.0386343 0.333811 0.0259475 0.0500001 0.617482 0.0665701 0.0484856 0.331472 
0.0193644 0.0545153 0.398634 0.0742516 0.0395763 0.675724 0.0606338 0.0457036 0.524123 
0.112858 0.0386149 0.459545 0.0923774 0.0447726 0.326009 0.125248 0.0385626 0.383488 
0.0211429 0.0553181 0.324355 0.0526577 0.0404484 0.797884 0.0619927 0.0478294 0.404733 
0.0218 0.0498519 0.671488 0.102769 0.0423548 0.36719 0.120855 0.0385295 0.412454 
0.0311687 0.0394524 0.98307 0.0186655 0.0495688 0.724093 0.0228859 0.047307 0.795738 
0.0673488 0.0395023 0.725143 0.111016 0.0383345 0.482138 0.0889024 0.0434468 0.414888 
0.0163392 0.0552726 0.378093 0.0476224 0.0494009 0.442004 0.0560396 0.0453627 0.577908 
0.0271694 0.0550019 0.285512 0.103622 0.0378976 0.545009 0.086568 0.0431711 0.444412 
0.0625865 0.0388156 0.779093 0.103474 0.0384915 0.523886 0.0217417 0.0534459 0.446001 
0.0548034 0.0475615 0.479257 0.0786991 0.0474958 0.288652 0.0805607 0.0432209 0.485853 
0.0448263 0.0486459 0.509042 0.0199364 0.0526085 0.521001 0.0189259 0.0534793 0.474123 
0.0452058 0.0515064 0.340277 0.0945054 0.0376963 0.609223 0.050676 0.0450674 0.636115 
0.0794268 0.0428267 0.511573 0.0138356 0.0528132 0.577332 0.0191947 0.0485398 0.775093 
0.0115595 0.0569084 0.307064 0.0186413 0.0525292 0.540632 0.0425403 0.0399564 0.88657 
0.108148 0.0420641 0.343511 0.128395 0.0564793 0.185896 0.0246209 0.064882 0.177719 
0.0640623 0.0539112 0.25156 0.11183 0.0537715 0.223798 0.0493659 0.0636715 0.202232 
0.069136 0.0776205 0.143084 0.0281442 0.0761872 0.135773 0.0877029 0.0675421 0.177909 
0.0864358 0.0597066 0.21309 0.133075 0.0484932 0.230181 0.0166354 0.0579109 0.235783 
0.0604825 0.0722848 0.167916 0.109658 0.0487824 0.24792 0.156057 0.0466887 0.199743 
0.05276 0.0844451 0.121598 0.0982714 0.0614008 0.137149 0.0746033 0.0780682 0.114628 
[...]
POINT_DATA 438
SCALARS scalars double
LOOKUP_TABLE default
1.6755246382 0.9791806223 0.9791806223 0.97594938187 0.12925491957 0.32674332908 0.2776476709 0.26537269646 0.54790553034 
-0.21848899462 -0.21871453724 -0.21891455992 0.84665342709 -0.17856744253 1.4657434747 1.135295639 0.86221409635 0.80015646753 
1.5522257846 1.3892109713 1.194864132 0.97756806161 0.62351150718 0.25873103587 0.043676132717 0.0036947001056 0.75325315321 
0.52870128787 0.3170738414 0.30551630372 0.26085193696 0.40221609491 0.43492101536 -0.21860483282 -0.21999990002 -0.17179908702 
-0.058158766325 0.11406364917 0.33283088172 0.58285245978 1.0812401593 1.2986601063 1.4865231487 1.6341235277 1.7330499344 
1.7776648458 1.76542579 1.6970302345 1.5763758398 1.4103383427 1.2083797289 0.98200902193 0.74412641865 0.50828814461 
0.28793392513 0.095621095082 -0.057691006459 -0.16326557653 -0.2150862328 -0.21019986942 -0.14888494579 -0.034635617958 0.12603738299 
0.32397777821 -0.16077576716 -0.02400712404 0.18032386837 0.43504686237 0.71875696815 1.0076134501 1.2773431122 1.5052800239 
1.6722701842 1.7642810712 1.7735808236 1.6993879641 1.5479370694 1.3319548652 1.0695907743 0.78289178324 0.49594978977 
0.23287711157 0.015780279339 -0.13709761979 -0.21290994591 -0.20528603548 -0.11486654116 0.050750403557 0.62258815746 0.40644230393 
0.2090902005 0.040460664451 -0.090962524082 -0.20430773504 0.69810823114 0.46983854429 0.17526328013 -0.071983623309 -0.20353805407 
-0.20206347466 -0.070749910509 -0.19823053745 -0.11210076093 0.033914302466 0.23002576773 0.46307296426 0.71740811854 0.43280230672 
0.817804103 1.0933668947 1.1517427527 1.3065231917 1.5916084598 1.7217590887 1.7408274774 0.82776281929 0.36881870492 
0.71230316511 0.35370086918 1.2545105476 0.2886410948 0.93968205698 0.5430800996 1.1634248179 0.14493383167 0.56814700099 
0.59876763048 0.93603648866 1.4676191343 0.14520593653 0.75223127193 0.75616927578 1.3570237577 1.7282221487 1.768296739 
1.543121533 1.1002912641 0.099436130411 0.80378264345 0.70549326191 1.3289671025 0.59115044346 1.71691781 1.3745290533 
0.16552489742 0.31011739066 1.7438062065 1.7585555214 1.1391874861 -0.099528237524 -0.10541046472 1.6346682663 1.4900703259 
1.7398187046 0.95392866253 -0.21791242411 0.23081184222 1.7761987877 1.0561939282 1.5487600505 1.0305112263 1.4944798645 
-0.19730918942 0.014956310347 0.99059585945 1.6090416854 0.63017894114 0.218974833 0.80523893907 0.51023000968 1.7794288023 
-0.21362877479 -0.098854652254 0.43229585504 1.5428825212 1.2341282762 0.18920272181 0.063008889303 0.58920818213 -0.13535473803 
-0.20643217259 1.1196436528 1.6490393121 0.39772693916 0.59256001834 0.77884705263 1.7765589199 1.7576846815 1.3036805094 
1.4345024337 0.63514744765 -0.01678806157 -0.069083799098 1.0743353811 1.1088231691 1.6033326464 0.31492409529 0.82838938663 
0.12667992895 0.36586886253 1.7799932744 1.4023225804 0.36632022564 1.2866268824 1.6959778155 -0.17118726317 1.6312687018 
1.5902320806 -0.015743911305 1.7229314992 1.0887020743 1.6096199758 0.13504773148 1.7438324768 1.704205237 1.3179407721 
1.6488844705 0.28229588155 1.2292877294 1.3652558854 1.7797419949 1.7799736926 0.32660193937 -0.14857625197 -0.19318715181 
1.7261871417 0.88149061682 1.4473245409 1.7569640386 1.7479946948 1.4801518862 1.0175973182 0.24499749617 0.83453440776 
1.3898875271 0.86892437814 0.50677447872 1.7391916833 1.4920404464 0.11300809901 0.42922325338 1.7246326274 1.7776746585 
1.2563308179 -0.12837985231 0.013566551382 1.6624405022 1.4477489815 1.6934234131 1.1200723305 -0.21996287145 0.41344759264 
1.771083354 1.0055997763 1.6428074195 1.3990938472 -0.18425966531 0.13731969225 1.1082452004 1.5790984093 0.58084386183 
0.18057236399 0.90815905874 0.85360791763 0.41377935163 1.7736443524 -0.074241689906 -0.14524075666 0.521643864 1.6111344192 
1.1917860173 0.23708534415 0.094272041664 -0.16500712297 -0.21179598795 0.74457890718 1.1125026041 1.5754111433 0.53539018111 
0.79274350764 0.73847656099 1.7797706563 1.7650717214 0.69929284005 1.4693524192 0.13255190696 -0.090351929446 1.1997430842 
1.1901158033 1.1792988096 1.6246975813 0.337252558 0.71076199938 0.058942219385 0.33072061936 1.7794977764 1.4689112865 
0.5663189088 1.4071422981 1.6527829934 -0.080145739764 1.6153087313 1.6368475839 -0.033979523542 1.7103858036 1.2589836748 
1.6729395153 0.24549567056 1.7625958327 1.7468898672 1.7201509478 1.4637557301 0.44416086788 1.2056952443 1.2901823677 
1.7784833959 1.7677601099 0.23675999889 -0.037509956098 1.7663918651 -0.18485835219 1.002960334 -0.06399401006 -0.11185220825 
-0.070564436228 0.049950891449 -0.21993836094 -0.1905761892 0.041904725996 -0.20201496073 -0.12012930056 0.21957407853 -0.21926649414 
-0.2109343558 0.17578154702 0.14538989568 -0.070657042564 -0.20500676229 -0.11220294001 -0.18170780144 -0.19427581245 0.097148401664 
0.50782195574 -0.1960329718 -0.16854643533 0.34334045381 -0.21380838161 0.38669486359 0.3667390324 -0.11665864704 -0.023480843639 
0.063846929002 -0.20547901802 0.093947282682 -0.12017273084 0.1362833736 -0.17941664701 -0.098183556822 -0.21999652153 -0.1326245497 
0.28852059281 -0.20071087347 -0.18433135291 -0.21640360191 0.6897982209 -0.0060467306925 -0.13846275424 -0.12262685283 -0.18593564673 
-0.15399017286 0.02330796696 0.51488783435 -0.20099717127 0.038680779693 -0.20790340614 0.22466803905 0.31127048843 0.0520766098 
-0.21929050506 -0.20522718424 -0.19590491714 0.82446257655 0.098402813951 0.64065491661 0.1014550813 -0.18920247315 -0.044031358276 
0.40736851786 -0.036898941538 -0.20398719783 -0.21878957394 -0.1086107117 0.35369402577 0.032782061029 -0.13035763529 0.15693975984 
-0.088392072579 0.24841639767 0.95127553474 0.45956714543 0.018058574871 -0.19005803317 -0.20880810213 0.21847905021 0.87118797993 
-0.08792775363 -0.21249416497 0.20607549398 0.33577081443 -0.12970873945 0.61324079458 -0.21999016626 -0.17882033382 -0.08147794362 
0.57847450784 1.1250649613 1.5145759826 1.5266505277 1.2342063851 0.8884139771 1.5724226036 0.64853558408 1.3774977766 
1.2727516235 1.6659353358 0.92367986192 1.330824123 1.0198891011 1.6661772356 0.35487652417 1.1957940535 1.4065210616 
1.1841940863 1.5596037725 1.4897786446 1.1539404317 1.6161497311 1.3481254901 
