# vtk DataFile Version 4.2
vtk output
ASCII
DATASET UNSTRUCTURED_GRID
POINTS 2534 float
0.0203517 0.00182004 0.0226382 0.0163018 0.136727 0.02282 0.0167161 1.75369e-06 0.0203175 
0.0102868 0.136024 0.0192743 0.0327195 0.000748927 0.0236628 0.0333936 0.140879 0.024703 
0.00746704 0.676247 0.0254782 0.0010286 0.673649 0.0191115 0.0527728 0.147077 0.0243127 
0.0448743 0.00208685 0.0236869 0.0492321 0.000196047 0.021696 0.0635341 0.148444 0.0215415 
0.0355113 0.691876 0.0296672 0.00933871 0.925287 0.020715 0.015555 0.925864 0.0339471 
0.073164 0.71523 0.0279195 0.033599 0.929682 0.0398455 0.0122763 0.998189 0.0210535 
0.0182928 0.998189 0.0359941 0.0914794 0.720426 0.0229818 0.0329358 0.998189 0.0422325 
0.0539821 0.935636 0.034655 0.0174044 0.925828 0.00829123 0.0339903 0.929642 0.00384955 
0.03307 0.998189 1.099e-05 0.0183876 0.998189 0.00615274 0.0692251 0.715227 0.0210236 
0.0531083 0.935572 0.00924091 0.0365609 0.691875 0.0186578 0.0477131 0.998189 0.0062493 
0.0476184 0.998189 0.0360907 0.0626807 0.937201 0.021776 0.0537297 0.998189 0.0211899 
0.0146927 0.676247 0.0170639 0.0338044 0.140887 0.0204385 0.051313 0.147087 0.0214175 
0.0207638 0.00188541 0.0190277 0.0185254 0.136734 0.0189897 0.0328891 0.000905663 0.0199062 
0.0444468 0.0021755 0.0206324 0.0194866 0.0107581 0.0226752 0.0191396 0.0197521 0.0226895 
0.0188644 0.0287486 0.0227013 0.0186191 0.037746 0.0227122 0.0183894 0.0467438 0.0227226 
0.0181687 0.0557418 0.0227327 0.0179538 0.06474 0.0227427 0.0177425 0.0737383 0.0227525 
0.0175338 0.0827366 0.0227622 0.0173267 0.091735 0.0227719 0.0171207 0.100733 0.0227815 
0.0169155 0.109732 0.0227912 0.0167107 0.11873 0.0228008 0.0165062 0.127729 0.0228104 
0.018135 0.000776647 0.0220029 0.0139356 0.007799 0.0200633 0.0133021 0.0163267 0.019955 
0.0129159 0.0248703 0.0198657 0.012621 0.0334177 0.0197868 0.0123723 0.0419666 0.0197159 
0.0121502 0.0505164 0.019652 0.0119446 0.0590666 0.0195946 0.0117494 0.067617 0.0195429 
0.0115608 0.0761677 0.0194964 0.0113764 0.0847184 0.0194545 0.0111942 0.0932693 0.0194168 
0.0110132 0.10182 0.0193827 0.0108325 0.110371 0.0193518 0.0106515 0.118922 0.0193236 
0.0104697 0.127473 0.0192979 0.0121932 0.136166 0.0219157 0.0327196 0.00949823 0.0239656 
0.0327583 0.0182567 0.0240502 0.0328008 0.0270154 0.024113 0.0328449 0.0357741 0.0241674 
0.0328896 0.0445328 0.0242175 0.0329349 0.0532916 0.0242651 0.0329803 0.0620503 0.0243112 
0.033026 0.0708091 0.0243562 0.0330718 0.0795678 0.0244005 0.0331177 0.0883266 0.0244443 
0.0331636 0.0970853 0.0244878 0.0332096 0.105844 0.0245311 0.0332556 0.114603 0.0245742 
0.0333016 0.123362 0.0246171 0.0333476 0.13212 0.0246601 0.0264776 0.000829383 0.0232721 
0.0248781 0.138537 0.0240673 0.0160977 0.145718 0.0228296 0.0158937 0.154709 0.0228394 
0.0156902 0.163701 0.0228494 0.0154873 0.172692 0.0228598 0.015285 0.181683 0.0228705 
0.0150835 0.190674 0.0228817 0.0148829 0.199666 0.0228935 0.0146832 0.208657 0.0229058 
0.0144845 0.217648 0.0229187 0.0142869 0.22664 0.0229323 0.0140905 0.235631 0.0229466 
0.0138953 0.244622 0.0229616 0.0137013 0.253614 0.0229774 0.0135086 0.262605 0.022994 
0.0133173 0.271597 0.0230114 0.0131275 0.280588 0.0230297 0.0129391 0.28958 0.0230489 
0.0127522 0.298571 0.023069 0.0125669 0.307563 0.0230901 0.0123833 0.316555 0.0231122 
0.0122013 0.325546 0.0231353 0.0120211 0.334538 0.0231595 0.0118426 0.34353 0.0231848 
0.0116661 0.352521 0.0232112 0.0114914 0.361513 0.0232388 0.0113188 0.370505 0.0232676 
0.0111482 0.379497 0.0232976 0.0109797 0.388489 0.023329 0.0108134 0.397481 0.0233616 
0.0106493 0.406473 0.0233957 0.0104876 0.415465 0.0234312 0.0103284 0.424457 0.0234681 
0.0101716 0.433449 0.0235066 0.0100174 0.442441 0.0235467 0.00986599 0.451433 0.0235884 
0.00971734 0.460425 0.0236319 0.00957161 0.469417 0.0236771 0.00942892 0.47841 0.0237242 
0.00928938 0.487402 0.0237732 0.00915313 0.496394 0.0238242 0.00902032 0.505387 0.0238773 
0.00889109 0.514379 0.0239326 0.00876562 0.523372 0.0239902 0.00864407 0.532364 0.0240502 
0.00852665 0.541357 0.0241127 0.00841355 0.550349 0.0241778 0.00830501 0.559342 0.0242457 
0.00820128 0.568335 0.0243166 0.00810262 0.577327 0.0243905 0.00800933 0.58632 0.0244677 
0.00792175 0.595313 0.0245484 0.00784022 0.604305 0.0246328 0.00776516 0.613298 0.0247212 
0.00769702 0.622291 0.0248137 0.00763629 0.631284 0.0249108 0.00758356 0.640277 0.0250128 
0.00753947 0.649269 0.02512 0.00750475 0.658262 0.0252329 0.00748028 0.667255 0.0253521 
0.010094 0.144983 0.0192515 0.00990001 0.153943 0.0192306 0.00970506 0.162903 0.0192113 
0.00950933 0.171863 0.0191935 0.009313 0.180822 0.019177 0.00911624 0.189782 0.0191616 
0.00891921 0.198742 0.0191474 0.00872204 0.207702 0.019134 0.00852488 0.216661 0.0191216 
0.00832785 0.225621 0.0191099 0.00813109 0.234581 0.0190988 0.00793471 0.24354 0.0190885 
0.00773881 0.2525 0.0190786 0.00754352 0.26146 0.0190694 0.00734893 0.27042 0.0190606 
0.00715514 0.279379 0.0190522 0.00696223 0.288339 0.0190444 0.00677032 0.297299 0.0190369 
0.00657947 0.306259 0.0190298 0.00638979 0.315219 0.019023 0.00620134 0.324179 0.0190167 
0.00601422 0.333139 0.0190106 0.00582851 0.342098 0.019005 0.00564429 0.351058 0.0189996 
0.00546165 0.360018 0.0189946 0.00528067 0.368979 0.0189898 0.00510143 0.377939 0.0189855 
0.00492402 0.386899 0.0189814 0.00474852 0.395859 0.0189776 0.00457503 0.404819 0.0189742 
0.00440364 0.413779 0.0189711 0.00423444 0.42274 0.0189684 0.00406754 0.4317 0.018966 
0.00390302 0.44066 0.0189639 0.00374101 0.449621 0.0189622 0.00358162 0.458581 0.0189609 
0.00342495 0.467542 0.0189599 0.00327114 0.476502 0.0189594 0.00312031 0.485463 0.0189593 
0.00297261 0.494424 0.0189596 0.00282818 0.503384 0.0189604 0.00268717 0.512345 0.0189616 
0.00254977 0.521306 0.0189634 0.00241615 0.530267 0.0189656 0.0022865 0.539228 0.0189685 
0.00216104 0.548189 0.0189719 0.00204 0.55715 0.018976 0.00192363 0.566111 0.0189807 
0.0018122 0.575072 0.0189861 0.00170601 0.584033 0.0189923 0.0016054 0.592995 0.0189993 
0.00151073 0.601956 0.0190072 0.0014224 0.610917 0.019016 0.00134088 0.619879 0.0190258 
0.00126667 0.62884 0.0190367 0.00120035 0.637802 0.0190488 0.00114257 0.646764 0.0190622 
0.00109409 0.655725 0.019077 0.00105576 0.664687 0.0190934 0.00234072 0.674284 0.0234867 
0.0523554 0.138544 0.0242813 0.0519378 0.130011 0.0242499 0.0515202 0.121478 0.0242185 
0.0511023 0.112945 0.0241871 0.0506841 0.104412 0.0241556 0.0502653 0.0958791 0.0241241 
0.0498458 0.0873462 0.0240924 0.0494252 0.0788133 0.0240607 0.049003 0.0702806 0.0240288 
0.0485786 0.0617479 0.0239966 0.0481509 0.0532155 0.0239641 0.0477182 0.0446832 0.0239311 
0.0472779 0.0361514 0.0238972 0.0468246 0.0276202 0.0238619 0.046347 0.0190904 0.023824 
0.0458122 0.0105641 0.0237798 0.0388597 0.000931857 0.0237911 0.0462877 0.145107 0.0246344 
0.0398523 0.142959 0.0247897 0.0530208 0.00785162 0.0214138 0.0543053 0.0165688 0.0213781 
0.0551975 0.025337 0.0213618 0.0559426 0.034119 0.0213543 0.0566146 0.042907 0.0213527 
0.0572451 0.0516981 0.0213557 0.0578501 0.060491 0.0213623 0.058439 0.0692849 0.021372 
0.0590173 0.0780796 0.0213842 0.0595888 0.0868747 0.0213986 0.0601559 0.0956701 0.021415 
0.0607203 0.104466 0.021433 0.0612832 0.113261 0.0214525 0.0618455 0.122057 0.0214732 
0.0624078 0.130853 0.0214951 0.0629706 0.139648 0.0215179 0.0475158 0.00100046 0.0233056 
0.0593811 0.148289 0.0238613 0.0334403 0.149766 0.0247465 0.0334869 0.158654 0.0247902 
0.0335335 0.167541 0.0248342 0.0335799 0.176428 0.0248784 0.0336263 0.185316 0.024923 
0.0336724 0.194203 0.0249681 0.0337184 0.20309 0.0250138 0.0337642 0.211978 0.0250599 
0.0338098 0.220865 0.0251067 0.0338551 0.229752 0.0251541 0.0339002 0.23864 0.0252022 
0.0339451 0.247527 0.0252511 0.0339897 0.256414 0.0253006 0.0340341 0.265302 0.025351 
0.0340781 0.274189 0.0254022 0.0341219 0.283076 0.0254542 0.0341653 0.291963 0.0255071 
0.0342085 0.300851 0.025561 0.0342513 0.309738 0.0256157 0.0342937 0.318625 0.0256715 
0.0343359 0.327513 0.0257283 0.0343776 0.3364 0.0257861 0.034419 0.345287 0.025845 
0.03446 0.354174 0.025905 0.0345006 0.363062 0.0259662 0.0345408 0.371949 0.0260285 
0.0345806 0.380836 0.0260921 0.03462 0.389723 0.0261569 0.0346589 0.39861 0.0262231 
0.0346973 0.407498 0.0262906 0.0347352 0.416385 0.0263595 0.0347727 0.425272 0.0264299 
0.0348096 0.434159 0.0265017 0.034846 0.443046 0.0265751 0.0348819 0.451934 0.0266501 
0.0349171 0.460821 0.0267268 0.0349518 0.469708 0.0268053 0.0349859 0.478595 0.0268855 
0.0350193 0.487482 0.0269676 0.035052 0.496369 0.0270517 0.0350841 0.505256 0.0271378 
0.0351154 0.514143 0.027226 0.035146 0.52303 0.0273164 0.0351758 0.531917 0.0274091 
0.0352047 0.540804 0.0275043 0.0352328 0.549691 0.027602 0.03526 0.558578 0.0277024 
0.0352862 0.567465 0.0278055 0.0353114 0.576352 0.0279117 0.0353356 0.585239 0.0280209 
0.0353586 0.594126 0.0281335 0.0353804 0.603013 0.0282496 0.035401 0.611899 0.0283694 
0.0354202 0.620786 0.0284931 0.0354379 0.629673 0.0286211 0.0354542 0.638559 0.0287536 
0.0354687 0.647446 0.028891 0.0354815 0.656332 0.0290337 0.0354923 0.665218 0.0291821 
0.035501 0.674104 0.0293368 0.0355074 0.68299 0.0294982 0.0285975 0.687643 0.02926 
0.02162 0.683569 0.028483 0.0145789 0.679718 0.027271 0.00101362 0.682644 0.0191316 
0.00101172 0.69164 0.0191537 0.00102357 0.700635 0.019178 0.00104994 0.70963 0.0192046 
0.00109163 0.718625 0.0192335 0.00114952 0.727621 0.0192649 0.00122457 0.736616 0.0192989 
0.00131782 0.74561 0.0193356 0.00143038 0.754605 0.0193751 0.00156349 0.763599 0.0194175 
0.00171849 0.772593 0.019463 0.00189683 0.781586 0.0195116 0.00210012 0.790579 0.0195633 
0.00233009 0.799572 0.0196184 0.00258863 0.808563 0.0196768 0.00287778 0.817553 0.0197386 
0.00319974 0.826543 0.0198038 0.00355685 0.835531 0.0198725 0.00395154 0.844517 0.0199447 
0.00438624 0.853502 0.0200204 0.00486335 0.862484 0.0200994 0.00538498 0.871464 0.0201818 
0.00595258 0.880441 0.0202673 0.00656621 0.889415 0.0203556 0.00722332 0.898386 0.020446 
[...]
POINT_DATA 2534
SCALARS scalars double
LOOKUP_TABLE default
0.0018200371429 0.13672705429 1.7536866264e-06 0.13602368543 0.00074892695362 0.14087915571 0.67624738739 0.67364910401 0.14707689706 
0.0020868485288 0.00019604681458 0.14844392675 0.69187646431 0.92528721056 0.92586367199 0.71522950173 0.92968228085 0.998188692 
0.998188692 0.72042578684 0.998188692 0.93563619715 0.92582807624 0.92964168378 0.998188692 0.998188692 0.71522705147 
0.93557155176 0.69187465453 0.998188692 0.998188692 0.93720075332 0.998188692 0.67624745767 0.14088715196 0.14708738063 
0.0018854144939 0.13673355507 0.00090566278519 0.0021755018563 0.010758063658 0.019752052781 0.02874858356 0.03774598333 0.046743794969 
0.055741837042 0.064740017907 0.073738290369 0.082736615698 0.091734979795 0.10073337426 0.1097317785 0.11873020089 0.12772862412 
0.00077664685012 0.0077989957431 0.016326731445 0.024870307825 0.03341769732 0.041966632684 0.050516365281 0.059066552582 0.067617025438 
0.076167676671 0.084718441832 0.093269272243 0.10182014766 0.11037103319 0.11892192676 0.12747281163 0.13616605463 0.0094982315966 
0.018256719339 0.027015378185 0.035774086924 0.0445328174 0.053291560712 0.06205030939 0.070809066859 0.079567823852 0.088326582107 
0.097085339163 0.10584410069 0.11460286339 0.12336162466 0.13212038781 0.00082938290492 0.13853735528 0.14571825524 0.15470946288 
0.16370067854 0.17269190694 0.18168315006 0.19067441015 0.19966568894 0.20865698755 0.21764830796 0.22663965219 0.23563101971 
0.24462241221 0.25361383054 0.26260527619 0.27159674866 0.28058825016 0.2895797813 0.29857134124 0.30756293208 0.31655455421 
0.32554620823 0.33453789385 0.34352961295 0.35252136526 0.36151315145 0.37050497228 0.37949682835 0.38848871964 0.39748064698 
0.40647261074 0.41546461152 0.42445664959 0.43344872538 0.44244083928 0.45143299155 0.46042518261 0.46941741246 0.4784096816 
0.48740199001 0.49639433764 0.50538672438 0.51437915059 0.52337161498 0.53236411793 0.54135665882 0.55034923635 0.55934184897 
0.56833449606 0.57732717538 0.586319884 0.59531262019 0.60430537882 0.61329815606 0.62229094579 0.63128374074 0.64027653249 
0.6492693084 0.658262057 0.66725475668 0.14498346059 0.15394321456 0.16290295256 0.17186267619 0.18082238995 0.18978209619 
0.19874179733 0.20770149833 0.21666119906 0.22562090538 0.2345806171 0.24354033833 0.25250007099 0.26145981724 0.27041957974 
0.27937935946 0.28833915917 0.2972989798 0.30625882405 0.31521869351 0.32417858862 0.3331385124 0.34209846531 0.35105844948 
0.36001846603 0.36897851642 0.37793860202 0.38689872424 0.39585888417 0.40481908333 0.41377932305 0.42273960454 0.4316999291 
0.44066029805 0.44962071258 0.45858117417 0.4675416838 0.47650224293 0.48546285303 0.49442351489 0.50338423008 0.51234500018 
0.52130582561 0.53026670836 0.53922764953 0.54818864972 0.55714971063 0.56611083305 0.57507201748 0.58403326545 0.59299457739 
0.60195595299 0.61091739231 0.61987889518 0.62884046045 0.6378020855 0.6467637686 0.65572550407 0.66468728591 0.67428380684 
0.13854389937 0.13001091014 0.12147792853 0.11294495464 0.1044119996 0.09587907045 0.087346179529 0.078813343109 0.070280588116 
0.061747938349 0.05321545852 0.044683229331 0.036151397929 0.027620248204 0.019090442801 0.010564100259 0.0009318572177 0.1451068969 
0.14295866722 0.0078516236113 0.01656880967 0.025336971273 0.034119032086 0.042907029141 0.05169810995 0.060490978661 0.069284944171 
0.078079608942 0.086874713885 0.095670098978 0.10446565606 0.11326130781 0.12205699201 0.13085267253 0.13964832417 0.0010004560483 
0.14828887662 0.1497664762 0.15865379865 0.16754111879 0.17642843799 0.18531575603 0.1942030734 0.20309038866 0.21197770175 
0.22086501226 0.22975232173 0.23863962734 0.24752693107 0.25641423234 0.26530152981 0.27418882451 0.28307611509 0.29196340282 
0.30085068613 0.30973796511 0.31862523966 0.32751250944 0.33639977442 0.34528703386 0.35417428773 0.36306153563 0.37194877701 
0.38083601181 0.38972323917 0.39861045891 0.40749767042 0.41638487333 0.42527206701 0.43415925082 0.4430464241 0.45193358619 
0.46082073635 0.46970787369 0.47859499729 0.48748210616 0.49636919946 0.50525627556 0.51414333351 0.52303037228 0.53191738939 
0.54080438386 0.54969135357 0.55857829583 0.56746520966 0.57635209078 0.58523893778 0.59412574611 0.60301251241 0.61189923233 
0.62078590089 0.62967251219 0.63855905978 0.64744553696 0.65633193276 0.66521823826 0.67410443985 0.68299052106 0.68764274917 
0.68356866264 0.67971768022 0.68264441034 0.69163972345 0.70063502135 0.70963028548 0.71862548001 0.72762058042 0.73661554121 
0.74561031973 0.75460487028 0.76359912339 0.77259300856 0.78158644845 0.79057933954 0.79957156925 0.80856299711 0.81755347466 
0.82654280758 0.83553078949 0.84451717014 0.85350167274 0.86248399576 0.87146381188 0.88044080795 0.88941475159 0.89838559478 
0.9073537017 0.91632016692 0.92536254968 0.68517464082 0.6941017639 0.70302872693 0.71195549352 0.72088202641 0.72980827007 
0.73873417985 0.74765968469 0.75658471676 0.7655091986 0.7744330313 0.78335610737 0.79227830846 0.80119948496 0.81011947025 
0.8190380708 0.82795506585 0.83687019485 0.8457831627 0.85469364131 0.86360126102 0.87250564614 0.88140643991 0.89030339166 
0.89919651623 0.90808635658 0.91697442127 0.15595019724 0.16482351476 0.17369686414 0.18257025723 0.19144370498 0.20031721467 
0.20919079466 0.21806445252 0.22693819281 0.23581202245 0.24468594387 0.25355996434 0.26243408695 0.27130831504 0.28018265311 
0.28905710531 0.29793167419 0.30680636393 0.31568117704 0.32455611754 0.33343118868 0.34230639369 0.35118173507 0.36005721693 
0.36893284241 0.37780861419 0.38668453604 0.39556061106 0.40443684284 0.41331323432 0.42218978946 0.43106651151 0.43994340401 
0.44882047066 0.45769771514 0.4665751412 0.47545275263 0.48433055317 0.49320854707 0.50208673803 0.51096513015 0.51984372734 
0.52872253424 0.53760155411 0.54648079181 0.55536025058 0.56423993478 0.57311984797 0.58199999332 0.59088037477 0.59976099494 
0.60864185552 0.61752295862 0.62640430427 0.63528589239 0.64416771919 0.65304978255 0.66193207316 0.67081457995 0.67969728718 
0.68858017138 0.69746320109 0.70634633168 0.71087128861 0.70621613949 0.70144093857 0.69663484797 0.92809148707 0.92679221348 
0.70069228277 0.7095079165 0.7183233609 0.72713858751 0.73595357077 0.74476828654 0.75358270159 0.76239677697 0.77121047214 
0.78002374025 0.78883652538 0.79764875864 0.80646037189 0.81527126859 0.82408134885 0.8328904863 0.84169853685 0.85050532921 
0.85931065988 0.86811429915 0.87691598702 0.88571545576 0.89451247745 0.90330696854 0.91209920628 0.9208902267 0.93337392711 
0.94146417823 0.94955819493 0.95765610414 0.96575781573 0.97386290039 0.98197048455 0.99007940158 0.998188692 0.93388121755 
0.94190374601 0.94993153632 0.95796470793 0.96600308299 0.97404600119 0.98209224102 0.99014022469 0.71147689876 0.70252825828 
0.69357995905 0.68463206869 0.67568462962 0.66673767002 0.65779120854 0.64884525485 0.63989981122 0.63095487776 0.62201045147 
0.61306652501 0.60412309257 0.595180144 0.58623767022 0.57729566114 0.5683541065 0.55941299597 0.55047231893 0.54153206418 
0.53259222239 0.52365278263 0.51471373473 0.50577506944 0.49683677639 0.48789884628 0.47896127026 0.47002403895 0.46108714377 
0.45215057617 0.44321432777 0.43427839041 0.42534275615 0.41640741708 0.40747236532 0.39853759342 0.38960309348 0.38066885771 
0.37173487912 0.36280114945 0.35386766192 0.34493440797 0.33600138086 0.32706857258 0.31813597564 0.30920358125 0.30027138185 
0.29133936938 0.28240753468 0.27347586916 0.2645443632 0.2556130077 0.24668179123 0.23775070443 0.22881973515 0.21988887167 
0.21095809915 0.20202740612 0.19309677623 0.18416619267 0.1752356379 0.16630509072 0.15737452897 0.7200751702 0.71819528135 
0.998188692 0.98961743782 0.98104652912 0.9724769143 0.96390985392 0.95534640813 0.94678721092 0.93823251099 0.93379396592 
0.93171621264 0.92701426853 0.91839231599 0.90973624854 0.9010384572 0.89230286464 0.88353629178 0.87474526201 0.86593514641 
0.85711016149 0.84827355301 0.839427812 0.83057486527 0.82171620605 0.81285301376 0.80398620441 0.79511652768 0.78624456969 
0.77737080957 0.76849563886 0.75961937373 0.75074228415 0.7418645863 0.73298646285 0.72410805854 0.92734986133 0.93817708741 
0.94672370942 0.95528165313 0.96385033506 0.97242818134 0.98101252419 0.98960016755 0.998188692 0.93385928697 0.94189289374 
0.94992902149 0.95796771752 0.96600887949 0.9740521911 0.98209706707 0.99014276514 0.72409813314 0.73296896739 0.74183943129 
0.7507093898 0.75957867316 0.76844707757 0.7773143688 0.78618025156 0.79504436623 0.80390628303 0.81276546431 0.82162123798 
0.83047278144 0.83931903437 0.84815865902 0.85698993919 0.86581064844 0.87461789734 0.88340794079 0.89217600844 0.90091631531 
0.90962283141 0.91829217296 0.92693141551 0.93171892575 0.93378704837 0.70070098846 0.70952697197 0.71835256493 0.72717771433 
0.73600235559 0.74482642091 0.753649829 0.76247248832 0.7712942913 0.78011511197 0.78893481265 0.79775322045 0.80657013259 
0.81538532073 0.82419850267 0.83300934898 0.84181746643 0.85062238548 0.85942355921 0.86822034107 0.87701200408 0.88579777655 
0.89457696803 0.90334923879 0.91211519083 0.9208773966 0.69689353718 0.70182085084 0.70659791517 0.71113269826 0.94439473125 
0.95327484556 0.9622053199 0.97117537317 0.98017098575 0.98917839297 0.998188692 0.94443669067 0.95329991939 0.96221907017 
0.97118246622 0.98017459047 0.98918000958 0.998188692 0.93682134065 0.94560274322 0.95417086413 0.96286424107 0.97164478958 
0.98047616182 0.98932977451 0.998188692 0.93688028526 0.998188692 0.71831026253 0.7200451105 0.72923658944 0.73804731201 
0.74685773515 0.75566759015 0.76447653545 0.7732841597 0.78208995694 0.79089328806 0.79969337192 0.80848922377 0.81727961337 
0.82606296398 0.83483727421 0.84359995213 0.85234760789 0.86107576984 0.8697784807 0.87844771634 0.88707273226 0.89563948689 
0.90413017311 0.91252446301 0.92080731913 0.92899977591 0.67419412804 0.68516752038 0.694087457 0.70300724826 0.71192688739 
0.72084634098 0.72976559315 0.73868461028 0.74760336793 0.75652182892 0.76543995289 0.77435769798 0.78327501246 0.79219184375 
0.80110812072 0.81002377025 0.81893870708 0.82785283452 0.83676604185 0.8456782082 0.85458919435 0.86349886176 0.87240706391 
0.88131368041 0.89021864927 0.89912203239 0.90802414138 0.91692570741 0.92532813845 0.14303400777 0.14519424287 0.15596142788 
0.16483548751 0.17370957157 0.18258368915 0.19145785003 0.20033205901 0.20920632314 0.21808064895 0.2269550401 0.23582950185 
0.2447040367 0.25357864942 0.26245334349 0.27132812091 0.28020298617 0.28907794072 0.29795298827 0.30682813145 0.31570337277 
0.32457871429 0.33345415909 0.34232970908 0.35120536745 0.3600811362 0.36895701809 0.37783301524 0.38670912991 0.39558536511 
0.40446172313 0.41333820633 0.42221481738 0.43109155863 0.4399684328 0.44884544244 0.45772259015 0.46659987857 0.47547731026 
0.48435488801 0.4932326142 0.50211049184 0.51098852365 0.51986671163 0.52874505892 0.53762356754 0.54650224004 0.55538107849 
0.56426008539 0.57313926229 0.58201861025 0.59089813017 0.59977782361 0.60865768934 0.61753772763 0.62641793472 0.63529830761 
0.64417884134 0.65305952868 0.66194035795 0.67082131548 0.67970238125 0.6885835291 0.6974647247 0.70634591994 0.14977413258 
0.15866111672 0.16754810162 0.17643508971 0.18532208175 0.19420907861 0.20309608017 0.21198308625 0.22087009708 0.22975711451 
0.23864413668 0.24753116513 0.25641820016 0.26530523996 0.27419228638 0.28307933822 0.29196639656 0.30085346055 0.30974052978 
0.31862760453 0.32751468455 0.33640176986 0.34528886 0.35417595473 0.36306305367 0.37195015646 0.38083726299 0.38972437221 
0.39861148393 0.40749859762 0.41638571263 0.42527282827 0.43415994371 0.44304705809 0.45193417044 0.46082127978 0.46970838487 
0.47859548429 0.48748257663 0.49636966052 0.5052567337 0.51414379432 0.52303084048 0.53191786886 0.54080487715 0.54969186187 
0.558578819 0.56746574535 0.57635263493 0.5852394835 0.59412628386 0.60301302929 0.61189971131 0.62078632045 0.62967284511 
0.63855927225 0.64744558714 0.65633176941 0.66521779825 0.67410364583 0.68298927787 0.68080230764 0.68624202718 0.998188692 
0.14821539108 0.00088508210493 0.010825705674 0.019816983751 0.028809801847 0.037803080479 0.046796555637 0.055790136954 0.064783779824 
0.073777454295 0.08277115599 0.091764873291 0.10075860048 0.10975233469 0.11874607451 0.12773981329 0.13620775703 0.13849287079 
0.00095591245531 0.13213831598 0.12338948606 0.11464065884 0.10589182747 0.09714299883 0.088394165271 0.079645336291 0.07089650218 
0.06214767061 0.053398837734 0.044650005414 0.035901166393 0.02715232487 0.01840347708 0.0096546072652 0.0010733780756 0.1385599214 
0.13003246861 0.12150501968 0.11297757834 0.10445014897 0.095922738928 0.087395353042 0.078868005632 0.070340718315 0.061813509559 
0.053286424092 0.044759523798 0.036232914534 0.027706808031 0.01918169305 0.0106591305 0.14572542224 0.15471729124 0.16370916062 
0.17270103227 0.18169290637 0.19068478319 0.19967666262 0.20866854528 0.21766043162 0.22665232243 0.23564421611 0.2446361143 
0.25362801643 0.26261992251 0.27161183256 0.28060374742 0.28959566697 0.29858759019 0.30757951822 0.31657145075 0.32556338723 
0.33455532797 0.34354727313 0.35253922238 0.36153117574 0.37052313295 0.37951509408 0.38850705872 0.39749902696 0.40649099828 
0.41548297279 0.42447494994 0.4334669296 0.44245891136 0.45145089479 0.46044287964 0.46943486513 0.47842685088 0.48741883641 
0.49641082048 0.505402803 0.51439478263 0.52338675833 0.53237872908 0.54137069341 0.55036265031 0.55935459718 0.56834653229 
0.57733845404 0.58633035875 0.59532224478 0.60431410685 0.61330594196 0.62229774471 0.63128950909 0.64028122866 0.6492728939 
0.65826449708 0.66725602254 0.0012007009305 0.0045762616578 0.13105758615 0.12293393928 0.11441173083 0.10567453982 0.096921725056 
0.088158830908 0.1267387238 0.11412478821 0.10521952932 0.091147517334 0.083332570463 0.075184288302 0.066961481576 0.05742426573 
0.049031673636 0.040738650244 0.032414288754 0.023187987777 0.0074658555211 0.015054232347 0.11930725806 0.098871856066 0.11012072831 
0.13268514283 0.66110059363 0.14308176088 0.67032813009 0.13295091575 0.1176821056 0.10037599239 0.083441114923 0.066023843831 
0.058052301212 0.10882908191 0.091755791667 0.074680767283 0.047912794367 0.04001090758 0.12540590756 0.031118216701 0.022168779553 
0.0065822299962 0.013902365992 0.13773018357 0.13921288048 0.1256300302 0.047718077372 0.041002798522 0.05697014338 0.065671430049 
0.074370587509 0.13514383539 0.12644477039 0.11774481922 0.10904379664 0.083068311088 0.10034143773 0.091637350501 0.14309524966 
0.0054328598966 0.66665709935 0.65192754961 0.63350338234 0.61572825421 0.59795576544 0.58018551459 0.56241719038 0.54367767679 
0.52707588243 0.50975206457 0.49190415736 0.47359311058 0.45631397899 0.43845361852 0.42056769228 0.40253925699 0.38477789702 
0.36689597157 0.34908160212 0.33118210211 0.31510667031 0.30071792116 0.64011960533 0.62499302631 0.64549953832 0.60712739729 
0.58921884799 0.65606838697 0.28793173255 0.57124823425 0.55334746937 0.62748904076 0.53571330411 0.27580935551 0.51847641859 
0.50054970372 0.60947630743 0.26117192177 0.59146209166 0.48255932796 0.24892597354 0.46488786438 0.48178874155 0.57344694782 
0.44739555746 0.23482148923 0.42945194863 0.50066431335 0.41131169917 0.55543129211 0.52069662456 0.67430206593 0.39377560494 
0.22138303244 0.53525996571 0.37601625434 0.35796402281 0.20758905799 0.3401403374 0.32274918603 0.19501816334 0.18055414907 
0.16718285882 0.46485062538 0.15391428285 0.44749672066 0.42929286084 0.41128124557 0.63396833901 0.61619256501 0.59839708772 
0.393270673 0.58052998914 0.56243583102 0.54452037328 0.37526119797 0.66347477425 0.2948339192 0.52862926779 0.26817083861 
0.50954743975 0.6800918291 0.35725286595 0.49177424724 0.24144361585 0.67200785609 0.65925137065 0.33924571335 0.21438421927 
0.32193136298 0.47401538216 0.14613168137 0.45624360159 0.18787201232 0.43847195407 0.29423314013 0.3074873296 0.42070041905 
0.16064621264 0.40292897782 0.26722925025 0.38515761147 0.28274138538 0.63748042458 0.25550131547 0.36738629899 0.22840321038 
0.24022797807 0.62280408607 0.20113812483 0.34961501868 0.17350934473 0.66958418073 0.31417982122 0.60451162512 0.64847777266 
0.33184374635 0.20184241765 0.2132290086 0.58661155422 0.2885818104 0.56837127094 0.18623165088 0.55054096665 0.65976657546 
0.67498432572 0.26075806532 0.22831250729 0.30850667843 0.15923436277 0.65303082577 0.62517486081 0.60739949293 0.30075295284 
0.47438852273 0.58962430737 0.6455774944 0.57184925822 0.5278339003 0.55407431222 0.45597427046 0.64191208471 0.23410019996 
0.28232238266 0.53629944359 0.25540386682 0.62898714069 0.68087806235 0.91200177011 0.90341300272 0.89435892527 0.88537543458 
0.87640751925 0.86743970526 0.85846755931 0.84949028089 0.84050844598 0.83152315486 0.91888055738 0.82253562272 0.8135469839 
0.68678930736 0.80455822768 0.79557018023 0.78658352292 0.77855161366 0.67929453085 0.65780213069 0.63698706511 0.61643483129 
0.59444225942 0.57593980844 0.55375403289 0.53231705306 0.51669079785 0.4989203717 0.48114764554 0.46624092409 0.44365361693 
0.42979059516 0.41108625533 0.39370296977 0.37593958642 0.35813291793 0.34032510495 0.66568651655 0.60367700782 0.32264151056 
0.69168079566 0.304607384 0.54094299718 0.28644897868 0.64961454572 0.67293785255 0.58808287089 0.58105304519 0.26918761531 
0.56423881769 0.62692367308 0.25135342886 0.4513694204 0.56455416448 0.60744961445 0.23436460318 0.64474996269 0.54466056914 
0.52785868689 0.21640649375 0.6271105511 0.68526908409 0.19987773661 0.50797045981 0.4387521696 0.49019502124 0.15628882857 
0.18585674409 0.47267887331 0.47292082024 0.4562765614 0.1705213478 0.40272248911 0.38494729927 0.41809235969 0.42031399391 
0.50754219738 0.367172249 0.49036109575 0.34939720421 0.33162201671 0.32999348386 0.31384651594 0.61636537808 0.34772516532 
0.52242311832 0.29607049762 0.4007683171 0.27826394476 0.38318722954 0.36525586664 0.5540528459 0.26051581953 0.67566658725 
0.24273639377 0.22532719867 0.43410025458 0.65733329674 0.59575231669 0.20795677807 0.63493901861 0.61202937865 0.50024547177 
0.70005616621 0.64012606788 0.481314458 0.31230245101 0.55039846417 0.57177758601 0.68303349967 0.16213746427 0.46442657738 
0.67749234729 0.29444519487 0.6944274662 0.5780026946 0.1783599401 0.41178624187 0.25813168463 0.51595206476 0.27670186331 
0.66224329877 0.39401358012 0.65197545782 0.49800001157 0.5896084244 0.3762411857 0.24078258909 0.48304936915 0.4590169191 
0.35846902166 0.44587020561 0.60003674349 0.66429227558 0.34069705128 0.22263127957 0.59568655582 0.53479118044 0.42707987889 
0.3229252363 0.64429579087 0.68605428849 0.5153058621 0.14936206768 0.40931871384 0.65805110782 0.37357521569 0.53350092338 
0.20622271773 0.30515353533 0.58809565635 0.39199477391 0.63372206847 0.69877511732 0.3558558429 0.57051419374 0.62350552706 
0.17809021918 0.53714610009 0.28738189999 0.52636511964 0.69305789814 0.33810787194 0.44455364924 0.16325851717 0.15081070918 
0.26961027315 0.32052010263 0.42769143007 0.56780596918 0.67194394998 0.54654510341 0.19283588054 0.56089789837 0.56294021447 
0.50670223656 0.30275636933 0.2518385809 0.58072064943 0.62516691885 0.5573679765 0.61924142143 0.52824852941 0.60902192609 
0.66664294648 0.48815371633 0.28499221713 0.60451330255 0.66962269792 0.5423706564 0.23406672487 0.44955942036 0.26679177478 
0.64888021739 0.63026455379 0.5227576202 0.65044916032 0.64295292976 0.21629456584 0.46491015423 0.60092987668 0.58674215593 
0.60739873386 0.45864059509 0.24945936296 0.43782995669 0.19214507839 0.26339861435 0.5386650386 0.63828717732 0.43914700479 
0.19915040086 0.23069266471 0.43366048246 0.5820841176 0.54518219563 0.47414313582 0.45309041475 0.69036256397 0.15455305723 
0.49185654791 0.21392946628 0.44999522527 0.24580613561 0.67913727961 0.50897680036 0.69841296793 0.72011445027 0.73236921478 
0.74982071764 0.7667622435 0.78444718801 0.80129642423 0.81836797099 0.83357775115 0.84600788861 0.86060077346 0.71176813656 