<?xml version="1.0"?>
<VTKFile type="UnstructuredGrid" version="0.1" byte_order="LittleEndian">
   <UnstructuredGrid>
      <Piece NumberOfPoints="32" NumberOfCells="0" >
         <Points>
            <DataArray type="Float64" Name="Position" NumberOfComponents="3" format="ascii">
               0  -0.005  0
               0  0.005  0
               0.00714286  -0.01  0
               0.0214286  -0.01  0
               0.0357143  -0.01  0
               0.05  -0.01  0
               0.0642857  -0.01  0
               0.0785714  -0.01  0
               0.0928571  -0.01  0
               0.107143  -0.01  0
               0.121429  -0.01  0
               0.135714  -0.01  0
               0.15  -0.01  0
               0.164286  -0.01  0
               0.178571  -0.01  0
               0.192857  -0.01  0
               0.00714286  0.01  0
               0.0214286  0.01  0
               0.0357143  0.01  0
               0.05  0.01  0
               0.0642857  0.01  0
               0.0785714  0.01  0
               0.0928571  0.01  0
               0.107143  0.01  0
               0.121429  0.01  0
               0.135714  0.01  0
               0.15  0.01  0
               0.164286  0.01  0
               0.178571  0.01  0
               0.192857  0.01  0
               0.2  -0.005  0
               0.2  0.005  0
            </DataArray>
         </Points>

         <Cells>
            <DataArray type="Int32" Name="connectivity" NumberOfComponents="1" format="ascii">

            </DataArray>
            <DataArray type="Int32" Name="offsets" NumberOfComponents="1" format="ascii">

            </DataArray>
            <DataArray type="UInt8"  Name="types" NumberOfComponents="1" format="ascii">

            </DataArray>
         </Cells>
         <PointData Scalars="Rank " Vectors="Force Displacement ">
            <DataArray type="UInt32" Name="Rank" NumberOfComponents="1" format="ascii">
               0 0 0 0 0 0 0 0 0 0 0 0 0 0 0 0 0 0 0 0 0 0 0 0 0 0 0 0 0 0 0 0
            </DataArray>
            <DataArray type="Float64" Name="Force" NumberOfComponents="3" format="ascii">
               2.05199 0.024867 0.0  2.1202 -0.0170487 0.0  0.416656 -0.116756 0.0  0.27215 -0.167937 0.0  0.186415 0.0171352 0.0  0.164986 0.122914 0.0  0.155795 0.154557 0.0  0.154401 0.171348 0.0  0.156471 0.176507 0.0  0.16058 0.164681 0.0  0.165735 0.137598 0.0  0.171654 0.0987262 0.0  0.178613 0.0495274 0.0  0.187299 -0.00998362 0.0  0.198231 -0.0815359 0.0  0.203124 -0.153909 0.0  0.458447 -0.515871 0.0  0.340087 -0.38916 0.0  0.261491 -0.437996 0.0  0.231324 -0.432469 0.0  0.214365 -0.394998 0.0  0.20551 -0.357328 0.0  0.201369 -0.317172 0.0  0.200347 -0.269693 0.0  0.201201 -0.214399 0.0  0.203331 -0.152295 0.0  0.206983 -0.0836186 0.0  0.212437 -0.00708768 0.0  0.221878 0.0788748 0.0  0.224202 0.167395 0.0  0.294219 -0.011114 0.0  0.30694 0.0268511 0.0
            </DataArray>
            <DataArray type="Float64" Name="Displacement" NumberOfComponents="3" format="ascii">
               5.56939e-05 3.10191e-07 0.0  -5.56939e-05 -3.10191e-07 0.0  0.000110945 8.01831e-05 0.0  0.000110058 0.000239309 0.0  0.000109172 0.000398434 0.0  0.000108286 0.000557559 0.0  0.0001074 0.000716685 0.0  0.000106513 0.00087581 0.0  0.000105627 0.00103494 0.0  0.000104741 0.00119406 0.0  0.000103855 0.00135319 0.0  0.000102968 0.00151231 0.0  0.000102082 0.00167144 0.0  0.000101196 0.00183056 0.0  0.00010031 0.00198969 0.0  9.94233e-05 0.00214881 0.0  -0.000111831 7.89423e-05 0.0  -0.000112717 0.000238068 0.0  -0.000113603 0.000397193 0.0  -0.00011449 0.000556319 0.0  -0.000115376 0.000715444 0.0  -0.000116262 0.000874569 0.0  -0.000117148 0.00103369 0.0  -0.000118035 0.00119282 0.0  -0.000118921 0.00135195 0.0  -0.000119807 0.00151107 0.0  -0.000120694 0.0016702 0.0  -0.00012158 0.00182932 0.0  -0.000122466 0.00198845 0.0  -0.000123352 0.00214757 0.0  4.32863e-05 0.00222807 0.0  -6.81015e-05 0.00222745 0.0
            </DataArray>
         </PointData>
      </Piece>
   </UnstructuredGrid>
</VTKFile>
