<?xml version="1.0"?>
<VTKFile type="UnstructuredGrid" version="0.1" byte_order="LittleEndian">
   <UnstructuredGrid>
      <Piece NumberOfPoints="32" NumberOfCells="0" >
         <Points>
            <DataArray type="Float64" Name="Position" NumberOfComponents="3" format="ascii">
               0  -0.005  0
               0  0.005  0
               0.00714286  -0.01  0
               0.0214286  -0.01  0
               0.0357143  -0.01  0
               0.05  -0.01  0
               0.0642857  -0.01  0
               0.0785714  -0.01  0
               0.0928571  -0.01  0
               0.107143  -0.01  0
               0.121429  -0.01  0
               0.135714  -0.01  0
               0.15  -0.01  0
               0.164286  -0.01  0
               0.178571  -0.01  0
               0.192857  -0.01  0
               0.00714286  0.01  0
               0.0214286  0.01  0
               0.0357143  0.01  0
               0.05  0.01  0
               0.0642857  0.01  0
               0.0785714  0.01  0
               0.0928571  0.01  0
               0.107143  0.01  0
               0.121429  0.01  0
               0.135714  0.01  0
               0.15  0.01  0
               0.164286  0.01  0
               0.178571  0.01  0
               0.192857  0.01  0
               0.2  -0.005  0
               0.2  0.005  0
            </DataArray>
         </Points>

         <Cells>
            <DataArray type="Int32" Name="connectivity" NumberOfComponents="1" format="ascii">

            </DataArray>
            <DataArray type="Int32" Name="offsets" NumberOfComponents="1" format="ascii">

            </DataArray>
            <DataArray type="UInt8"  Name="types" NumberOfComponents="1" format="ascii">

            </DataArray>
         </Cells>
         <PointData Scalars="Rank " Vectors="Force Displacement ">
            <DataArray type="UInt32" Name="Rank" NumberOfComponents="1" format="ascii">
               0 0 0 0 0 0 0 0 0 0 0 0 0 0 0 0 0 0 0 0 0 0 0 0 0 0 0 0 0 0 0 0
            </DataArray>
            <DataArray type="Float64" Name="Force" NumberOfComponents="3" format="ascii">
               2.08446 0.0213333 0.0  2.09845 -0.026647 0.0  0.429093 0.15372 0.0  0.287149 0.0709156 0.0  0.20317 0.206041 0.0  0.180474 0.273697 0.0  0.168213 0.280643 0.0  0.164958 0.283026 0.0  0.166379 0.276143 0.0  0.170076 0.252608 0.0  0.174823 0.214445 0.0  0.180416 0.165061 0.0  0.18737 0.105312 0.0  0.196422 0.0345895 0.0  0.208369 -0.0501451 0.0  0.214686 -0.139552 0.0  0.452558 -0.295689 0.0  0.322665 -0.174166 0.0  0.241022 -0.251446 0.0  0.213311 -0.276627 0.0  0.199711 -0.264606 0.0  0.192779 -0.244965 0.0  0.190375 -0.218813 0.0  0.190624 -0.182772 0.0  0.192188 -0.137734 0.0  0.194683 -0.0854801 0.0  0.198408 -0.0266754 0.0  0.203859 0.0391217 0.0  0.211568 0.113255 0.0  0.212936 0.183786 0.0  0.307945 -0.0167946 0.0  0.307786 0.0214755 0.0
            </DataArray>
            <DataArray type="Float64" Name="Displacement" NumberOfComponents="3" format="ascii">
               -7.38424e-07 0 0.0  7.38424e-07 0 0.0  -1.47693e-06 -1.05478e-06 0.0  -1.47708e-06 -3.16456e-06 0.0  -1.47724e-06 -5.27435e-06 0.0  -1.47739e-06 -7.38413e-06 0.0  -1.47755e-06 -9.49391e-06 0.0  -1.4777e-06 -1.16037e-05 0.0  -1.47786e-06 -1.37135e-05 0.0  -1.47802e-06 -1.58233e-05 0.0  -1.47817e-06 -1.7933e-05 0.0  -1.47833e-06 -2.00428e-05 0.0  -1.47848e-06 -2.21526e-05 0.0  -1.47864e-06 -2.42624e-05 0.0  -1.47879e-06 -2.63722e-05 0.0  -1.47895e-06 -2.84819e-05 0.0  1.47677e-06 -1.055e-06 0.0  1.47661e-06 -3.16478e-06 0.0  1.47646e-06 -5.27456e-06 0.0  1.4763e-06 -7.38434e-06 0.0  1.47615e-06 -9.49413e-06 0.0  1.47599e-06 -1.16039e-05 0.0  1.47583e-06 -1.37137e-05 0.0  1.47568e-06 -1.58235e-05 0.0  1.47552e-06 -1.79333e-05 0.0  1.47537e-06 -2.0043e-05 0.0  1.47521e-06 -2.21528e-05 0.0  1.47506e-06 -2.42626e-05 0.0  1.4749e-06 -2.63724e-05 0.0  1.47474e-06 -2.84822e-05 0.0  -7.40605e-07 -2.95369e-05 0.0  7.36243e-07 -2.9537e-05 0.0
            </DataArray>
         </PointData>
      </Piece>
   </UnstructuredGrid>
</VTKFile>
