<?xml version="1.0"?>
<VTKFile type="UnstructuredGrid" version="0.1" byte_order="LittleEndian">
   <UnstructuredGrid>
      <Piece NumberOfPoints="32" NumberOfCells="0" >
         <Points>
            <DataArray type="Float64" Name="Position" NumberOfComponents="3" format="ascii">
               0  -0.005  0
               0  0.005  0
               0.00714286  -0.01  0
               0.0214286  -0.01  0
               0.0357143  -0.01  0
               0.05  -0.01  0
               0.0642857  -0.01  0
               0.0785714  -0.01  0
               0.0928571  -0.01  0
               0.107143  -0.01  0
               0.121429  -0.01  0
               0.135714  -0.01  0
               0.15  -0.01  0
               0.164286  -0.01  0
               0.178571  -0.01  0
               0.192857  -0.01  0
               0.00714286  0.01  0
               0.0214286  0.01  0
               0.0357143  0.01  0
               0.05  0.01  0
               0.0642857  0.01  0
               0.0785714  0.01  0
               0.0928571  0.01  0
               0.107143  0.01  0
               0.121429  0.01  0
               0.135714  0.01  0
               0.15  0.01  0
               0.164286  0.01  0
               0.178571  0.01  0
               0.192857  0.01  0
               0.2  -0.005  0
               0.2  0.005  0
            </DataArray>
         </Points>

         <Cells>
            <DataArray type="Int32" Name="connectivity" NumberOfComponents="1" format="ascii">

            </DataArray>
            <DataArray type="Int32" Name="offsets" NumberOfComponents="1" format="ascii">

            </DataArray>
            <DataArray type="UInt8"  Name="types" NumberOfComponents="1" format="ascii">

            </DataArray>
         </Cells>
         <PointData Scalars="Rank " Vectors="Force Displacement ">
            <DataArray type="UInt32" Name="Rank" NumberOfComponents="1" format="ascii">
               0 0 0 0 0 0 0 0 0 0 0 0 0 0 0 0 0 0 0 0 0 0 0 0 0 0 0 0 0 0 0 0
            </DataArray>
            <DataArray type="Float64" Name="Force" NumberOfComponents="3" format="ascii">
               2.08185 0.0178006 0.0  2.10109 -0.0296804 0.0  0.435095 0.105861 0.0  0.298419 0.0148438 0.0  0.216936 0.139623 0.0  0.193457 0.199463 0.0  0.178358 0.200326 0.0  0.173799 0.204395 0.0  0.17352 0.19645 0.0  0.17581 0.173474 0.0  0.178963 0.137561 0.0  0.182651 0.0921901 0.0  0.187426 0.038942 0.0  0.193817 -0.0221872 0.0  0.202603 -0.0925131 0.0  0.204622 -0.162246 0.0  0.447022 -0.343445 0.0  0.313486 -0.230296 0.0  0.230045 -0.306726 0.0  0.200275 -0.335544 0.0  0.187826 -0.333111 0.0  0.182047 -0.321018 0.0  0.18167 -0.300478 0.0  0.184161 -0.267697 0.0  0.188158 -0.222563 0.0  0.193013 -0.166848 0.0  0.199194 -0.101339 0.0  0.207381 -0.025287 0.0  0.218273 0.0636279 0.0  0.224172 0.154801 0.0  0.274244 -0.0128165 0.0  0.309536 0.0239845 0.0
            </DataArray>
            <DataArray type="Float64" Name="Displacement" NumberOfComponents="3" format="ascii">
               9.95582e-07 0 0.0  -9.95582e-07 0 0.0  1.99102e-06 1.42246e-06 0.0  1.99074e-06 4.26698e-06 0.0  1.99046e-06 7.1115e-06 0.0  1.99017e-06 9.95602e-06 0.0  1.98989e-06 1.28005e-05 0.0  1.98961e-06 1.56451e-05 0.0  1.98932e-06 1.84896e-05 0.0  1.98904e-06 2.13341e-05 0.0  1.98876e-06 2.41786e-05 0.0  1.98847e-06 2.70231e-05 0.0  1.98819e-06 2.98677e-05 0.0  1.98791e-06 3.27122e-05 0.0  1.98762e-06 3.55567e-05 0.0  1.98734e-06 3.84012e-05 0.0  -1.99131e-06 1.42206e-06 0.0  -1.99159e-06 4.26658e-06 0.0  -1.99187e-06 7.1111e-06 0.0  -1.99216e-06 9.95562e-06 0.0  -1.99244e-06 1.28001e-05 0.0  -1.99272e-06 1.56447e-05 0.0  -1.993e-06 1.84892e-05 0.0  -1.99329e-06 2.13337e-05 0.0  -1.99357e-06 2.41782e-05 0.0  -1.99385e-06 2.70227e-05 0.0  -1.99414e-06 2.98673e-05 0.0  -1.99442e-06 3.27118e-05 0.0  -1.9947e-06 3.55563e-05 0.0  -1.99499e-06 3.84008e-05 0.0  9.91617e-07 3.98234e-05 0.0  -9.99547e-07 3.98232e-05 0.0
            </DataArray>
         </PointData>
      </Piece>
   </UnstructuredGrid>
</VTKFile>
