<?xml version="1.0"?>
<VTKFile type="UnstructuredGrid" version="0.1" byte_order="LittleEndian">
   <UnstructuredGrid>
      <Piece NumberOfPoints="32" NumberOfCells="0" >
         <Points>
            <DataArray type="Float64" Name="Position" NumberOfComponents="3" format="ascii">
               0  -0.005  0
               0  0.005  0
               0.00714286  -0.01  0
               0.0214286  -0.01  0
               0.0357143  -0.01  0
               0.05  -0.01  0
               0.0642857  -0.01  0
               0.0785714  -0.01  0
               0.0928571  -0.01  0
               0.107143  -0.01  0
               0.121429  -0.01  0
               0.135714  -0.01  0
               0.15  -0.01  0
               0.164286  -0.01  0
               0.178571  -0.01  0
               0.192857  -0.01  0
               0.00714286  0.01  0
               0.0214286  0.01  0
               0.0357143  0.01  0
               0.05  0.01  0
               0.0642857  0.01  0
               0.0785714  0.01  0
               0.0928571  0.01  0
               0.107143  0.01  0
               0.121429  0.01  0
               0.135714  0.01  0
               0.15  0.01  0
               0.164286  0.01  0
               0.178571  0.01  0
               0.192857  0.01  0
               0.2  -0.005  0
               0.2  0.005  0
            </DataArray>
         </Points>

         <Cells>
            <DataArray type="Int32" Name="connectivity" NumberOfComponents="1" format="ascii">

            </DataArray>
            <DataArray type="Int32" Name="offsets" NumberOfComponents="1" format="ascii">

            </DataArray>
            <DataArray type="UInt8"  Name="types" NumberOfComponents="1" format="ascii">

            </DataArray>
         </Cells>
         <PointData Scalars="Rank " Vectors="Force Displacement ">
            <DataArray type="UInt32" Name="Rank" NumberOfComponents="1" format="ascii">
               0 0 0 0 0 0 0 0 0 0 0 0 0 0 0 0 0 0 0 0 0 0 0 0 0 0 0 0 0 0 0 0
            </DataArray>
            <DataArray type="Float64" Name="Force" NumberOfComponents="3" format="ascii">
               -22.7601 -0.00273501 0.0  -22.7555 0.00130573 0.0  0.523404 -33.9643 0.0  0.40329 -32.9048 0.0  0.343319 -31.6636 0.0  0.338924 -30.7161 0.0  0.348185 -29.8721 0.0  0.353993 -29.0324 0.0  0.357719 -28.2042 0.0  0.360939 -27.3921 0.0  0.364277 -26.591 0.0  0.368272 -25.7967 0.0  0.373832 -25.0085 0.0  0.38255 -24.2265 0.0  0.399838 -23.4527 0.0  0.412589 -22.6986 0.0  0.525162 33.9205 0.0  0.406684 32.8763 0.0  0.346698 31.6491 0.0  0.342085 30.7074 0.0  0.351012 29.8675 0.0  0.3566 29.0309 0.0  0.360166 28.205 0.0  0.363225 27.3944 0.0  0.366375 26.5944 0.0  0.370138 25.8006 0.0  0.375402 25.0126 0.0  0.383725 24.2305 0.0  0.400472 23.4559 0.0  0.41233 22.6997 0.0  15.7177 -0.0204011 0.0  15.7136 0.0198947 0.0
            </DataArray>
            <DataArray type="Float64" Name="Displacement" NumberOfComponents="3" format="ascii">
               -1.1547e-07 0 0.0  1.1547e-07 0 0.0  -2.30942e-07 -1.64954e-07 0.0  -2.30946e-07 -4.94869e-07 0.0  -2.3095e-07 -8.24783e-07 0.0  -2.30953e-07 -1.1547e-06 0.0  -2.30957e-07 -1.48461e-06 0.0  -2.30961e-07 -1.81453e-06 0.0  -2.30965e-07 -2.14444e-06 0.0  -2.30969e-07 -2.47436e-06 0.0  -2.30972e-07 -2.80427e-06 0.0  -2.30976e-07 -3.13418e-06 0.0  -2.3098e-07 -3.4641e-06 0.0  -2.30984e-07 -3.79401e-06 0.0  -2.30988e-07 -4.12393e-06 0.0  -2.30991e-07 -4.45384e-06 0.0  2.30938e-07 -1.6496e-07 0.0  2.30934e-07 -4.94874e-07 0.0  2.30931e-07 -8.24789e-07 0.0  2.30927e-07 -1.1547e-06 0.0  2.30923e-07 -1.48462e-06 0.0  2.30919e-07 -1.81453e-06 0.0  2.30915e-07 -2.14445e-06 0.0  2.30911e-07 -2.47436e-06 0.0  2.30908e-07 -2.80427e-06 0.0  2.30904e-07 -3.13419e-06 0.0  2.309e-07 -3.4641e-06 0.0  2.30896e-07 -3.79402e-06 0.0  2.30892e-07 -4.12393e-06 0.0  2.30889e-07 -4.45385e-06 0.0  -1.15523e-07 -4.6188e-06 0.0  1.15417e-07 -4.6188e-06 0.0
            </DataArray>
         </PointData>
      </Piece>
   </UnstructuredGrid>
</VTKFile>
