<?xml version="1.0"?>
<VTKFile type="UnstructuredGrid" version="0.1" byte_order="LittleEndian">
   <UnstructuredGrid>
      <Piece NumberOfPoints="32" NumberOfCells="0" >
         <Points>
            <DataArray type="Float64" Name="Position" NumberOfComponents="3" format="ascii">
               0  -0.005  0
               0  0.005  0
               0.00714286  -0.01  0
               0.0214286  -0.01  0
               0.0357143  -0.01  0
               0.05  -0.01  0
               0.0642857  -0.01  0
               0.0785714  -0.01  0
               0.0928571  -0.01  0
               0.107143  -0.01  0
               0.121429  -0.01  0
               0.135714  -0.01  0
               0.15  -0.01  0
               0.164286  -0.01  0
               0.178571  -0.01  0
               0.192857  -0.01  0
               0.00714286  0.01  0
               0.0214286  0.01  0
               0.0357143  0.01  0
               0.05  0.01  0
               0.0642857  0.01  0
               0.0785714  0.01  0
               0.0928571  0.01  0
               0.107143  0.01  0
               0.121429  0.01  0
               0.135714  0.01  0
               0.15  0.01  0
               0.164286  0.01  0
               0.178571  0.01  0
               0.192857  0.01  0
               0.2  -0.005  0
               0.2  0.005  0
            </DataArray>
         </Points>

         <Cells>
            <DataArray type="Int32" Name="connectivity" NumberOfComponents="1" format="ascii">

            </DataArray>
            <DataArray type="Int32" Name="offsets" NumberOfComponents="1" format="ascii">

            </DataArray>
            <DataArray type="UInt8"  Name="types" NumberOfComponents="1" format="ascii">

            </DataArray>
         </Cells>
         <PointData Scalars="Rank " Vectors="Force Displacement ">
            <DataArray type="UInt32" Name="Rank" NumberOfComponents="1" format="ascii">
               0 0 0 0 0 0 0 0 0 0 0 0 0 0 0 0 0 0 0 0 0 0 0 0 0 0 0 0 0 0 0 0
            </DataArray>
            <DataArray type="Float64" Name="Force" NumberOfComponents="3" format="ascii">
               2.03401 0.0218395 0.0  2.11082 -0.0181673 0.0  0.420675 -0.191854 0.0  0.279676 -0.248553 0.0  0.194291 -0.0631884 0.0  0.173602 0.0438384 0.0  0.163879 0.0732078 0.0  0.1619 0.0889485 0.0  0.163257 0.0935202 0.0  0.166605 0.0821579 0.0  0.170561 0.056613 0.0  0.175013 0.0205845 0.0  0.18028 -0.0238507 0.0  0.186941 -0.0762859 0.0  0.195299 -0.137542 0.0  0.196861 -0.194554 0.0  0.454627 -0.552736 0.0  0.333528 -0.432171 0.0  0.25382 -0.483174 0.0  0.223896 -0.481087 0.0  0.207074 -0.447163 0.0  0.198868 -0.4128 0.0  0.195971 -0.374879 0.0  0.196452 -0.328228 0.0  0.198907 -0.272183 0.0  0.202476 -0.2068 0.0  0.207803 -0.132443 0.0  0.215319 -0.0474561 0.0  0.226298 0.0509792 0.0  0.231854 0.155864 0.0  0.296364 -0.0108204 0.0  0.321195 0.0270261 0.0
            </DataArray>
            <DataArray type="Float64" Name="Displacement" NumberOfComponents="3" format="ascii">
               6.21132e-05 3.85819e-07 0.0  -6.21132e-05 -3.85819e-07 0.0  0.000123675 8.95047e-05 0.0  0.000122573 0.000266971 0.0  0.00012147 0.000444437 0.0  0.000120368 0.000621903 0.0  0.000119266 0.000799369 0.0  0.000118163 0.000976836 0.0  0.000117061 0.0011543 0.0  0.000115959 0.00133177 0.0  0.000114856 0.00150923 0.0  0.000113754 0.0016867 0.0  0.000112652 0.00186417 0.0  0.000111549 0.00204163 0.0  0.000110447 0.0022191 0.0  0.000109345 0.00239657 0.0  -0.000124777 8.79615e-05 0.0  -0.00012588 0.000265428 0.0  -0.000126982 0.000442894 0.0  -0.000128085 0.00062036 0.0  -0.000129187 0.000797826 0.0  -0.000130289 0.000975292 0.0  -0.000131392 0.00115276 0.0  -0.000132494 0.00133022 0.0  -0.000133596 0.00150769 0.0  -0.000134699 0.00168516 0.0  -0.000135801 0.00186262 0.0  -0.000136903 0.00204009 0.0  -0.000138006 0.00221756 0.0  -0.000139108 0.00239502 0.0  4.66804e-05 0.00248491 0.0  -7.75459e-05 0.00248414 0.0
            </DataArray>
         </PointData>
      </Piece>
   </UnstructuredGrid>
</VTKFile>
