<?xml version="1.0"?>
<VTKFile type="UnstructuredGrid" version="0.1" byte_order="LittleEndian">
   <UnstructuredGrid>
      <Piece NumberOfPoints="32" NumberOfCells="0" >
         <Points>
            <DataArray type="Float64" Name="Position" NumberOfComponents="3" format="ascii">
               0  -0.005  0
               0  0.005  0
               0.00714286  -0.01  0
               0.0214286  -0.01  0
               0.0357143  -0.01  0
               0.05  -0.01  0
               0.0642857  -0.01  0
               0.0785714  -0.01  0
               0.0928571  -0.01  0
               0.107143  -0.01  0
               0.121429  -0.01  0
               0.135714  -0.01  0
               0.15  -0.01  0
               0.164286  -0.01  0
               0.178571  -0.01  0
               0.192857  -0.01  0
               0.00714286  0.01  0
               0.0214286  0.01  0
               0.0357143  0.01  0
               0.05  0.01  0
               0.0642857  0.01  0
               0.0785714  0.01  0
               0.0928571  0.01  0
               0.107143  0.01  0
               0.121429  0.01  0
               0.135714  0.01  0
               0.15  0.01  0
               0.164286  0.01  0
               0.178571  0.01  0
               0.192857  0.01  0
               0.2  -0.005  0
               0.2  0.005  0
            </DataArray>
         </Points>

         <Cells>
            <DataArray type="Int32" Name="connectivity" NumberOfComponents="1" format="ascii">

            </DataArray>
            <DataArray type="Int32" Name="offsets" NumberOfComponents="1" format="ascii">

            </DataArray>
            <DataArray type="UInt8"  Name="types" NumberOfComponents="1" format="ascii">

            </DataArray>
         </Cells>
         <PointData Scalars="Rank " Vectors="Force Displacement ">
            <DataArray type="UInt32" Name="Rank" NumberOfComponents="1" format="ascii">
               0 0 0 0 0 0 0 0 0 0 0 0 0 0 0 0 0 0 0 0 0 0 0 0 0 0 0 0 0 0 0 0
            </DataArray>
            <DataArray type="Float64" Name="Force" NumberOfComponents="3" format="ascii">
               2.05393 0.0157165 0.0  2.12093 -0.0246784 0.0  0.43043 -0.164141 0.0  0.301087 -0.228435 0.0  0.219059 -0.0303257 0.0  0.196093 0.0928532 0.0  0.187359 0.138075 0.0  0.182118 0.159572 0.0  0.179046 0.168364 0.0  0.177259 0.161944 0.0  0.176238 0.142775 0.0  0.175545 0.113775 0.0  0.175571 0.0758519 0.0  0.176729 0.0273831 0.0  0.179096 -0.0357097 0.0  0.172774 -0.107476 0.0  0.443959 -0.573234 0.0  0.312563 -0.458413 0.0  0.22996 -0.500846 0.0  0.197859 -0.480117 0.0  0.181424 -0.433105 0.0  0.177306 -0.3928 0.0  0.179079 -0.351843 0.0  0.184545 -0.299567 0.0  0.19208 -0.235945 0.0  0.201096 -0.162944 0.0  0.212079 -0.0808305 0.0  0.226447 0.0111077 0.0  0.246361 0.115235 0.0  0.262296 0.221722 0.0  0.246958 0.012018 0.0  0.355792 0.0375133 0.0
            </DataArray>
            <DataArray type="Float64" Name="Displacement" NumberOfComponents="3" format="ascii">
               5.5532e-05 3.08389e-07 0.0  -5.5532e-05 -3.08389e-07 0.0  0.000110623 7.99482e-05 0.0  0.000109742 0.000238611 0.0  0.000108861 0.000397274 0.0  0.00010798 0.000555936 0.0  0.000107099 0.000714599 0.0  0.000106218 0.000873262 0.0  0.000105337 0.00103192 0.0  0.000104456 0.00119059 0.0  0.000103574 0.00134925 0.0  0.000102693 0.00150791 0.0  0.000101812 0.00166658 0.0  0.000100931 0.00182524 0.0  0.00010005 0.0019839 0.0  9.91689e-05 0.00214256 0.0  -0.000111504 7.87146e-05 0.0  -0.000112386 0.000237377 0.0  -0.000113267 0.00039604 0.0  -0.000114148 0.000554703 0.0  -0.000115029 0.000713366 0.0  -0.00011591 0.000872028 0.0  -0.000116791 0.00103069 0.0  -0.000117672 0.00118935 0.0  -0.000118553 0.00134802 0.0  -0.000119435 0.00150668 0.0  -0.000120316 0.00166534 0.0  -0.000121197 0.00182401 0.0  -0.000122078 0.00198267 0.0  -0.000122959 0.00214133 0.0  4.31964e-05 0.00222159 0.0  -6.78676e-05 0.00222097 0.0
            </DataArray>
         </PointData>
      </Piece>
   </UnstructuredGrid>
</VTKFile>
