<?xml version="1.0"?>
<VTKFile type="UnstructuredGrid" version="0.1" byte_order="LittleEndian">
   <UnstructuredGrid>
      <Piece NumberOfPoints="32" NumberOfCells="0" >
         <Points>
            <DataArray type="Float64" Name="Position" NumberOfComponents="3" format="ascii">
               0  -0.005  0
               0  0.005  0
               0.00714286  -0.01  0
               0.0214286  -0.01  0
               0.0357143  -0.01  0
               0.05  -0.01  0
               0.0642857  -0.01  0
               0.0785714  -0.01  0
               0.0928571  -0.01  0
               0.107143  -0.01  0
               0.121429  -0.01  0
               0.135714  -0.01  0
               0.15  -0.01  0
               0.164286  -0.01  0
               0.178571  -0.01  0
               0.192857  -0.01  0
               0.00714286  0.01  0
               0.0214286  0.01  0
               0.0357143  0.01  0
               0.05  0.01  0
               0.0642857  0.01  0
               0.0785714  0.01  0
               0.0928571  0.01  0
               0.107143  0.01  0
               0.121429  0.01  0
               0.135714  0.01  0
               0.15  0.01  0
               0.164286  0.01  0
               0.178571  0.01  0
               0.192857  0.01  0
               0.2  -0.005  0
               0.2  0.005  0
            </DataArray>
         </Points>

         <Cells>
            <DataArray type="Int32" Name="connectivity" NumberOfComponents="1" format="ascii">

            </DataArray>
            <DataArray type="Int32" Name="offsets" NumberOfComponents="1" format="ascii">

            </DataArray>
            <DataArray type="UInt8"  Name="types" NumberOfComponents="1" format="ascii">

            </DataArray>
         </Cells>
         <PointData Scalars="Rank " Vectors="Force Displacement ">
            <DataArray type="UInt32" Name="Rank" NumberOfComponents="1" format="ascii">
               0 0 0 0 0 0 0 0 0 0 0 0 0 0 0 0 0 0 0 0 0 0 0 0 0 0 0 0 0 0 0 0
            </DataArray>
            <DataArray type="Float64" Name="Force" NumberOfComponents="3" format="ascii">
               2.08032 0.0221106 0.0  2.10605 -0.025167 0.0  0.428354 0.0992555 0.0  0.288505 0.0202709 0.0  0.204771 0.166517 0.0  0.182852 0.245608 0.0  0.170919 0.261217 0.0  0.168516 0.267273 0.0  0.169841 0.262972 0.0  0.173441 0.242228 0.0  0.178151 0.2064 0.0  0.183465 0.158037 0.0  0.189999 0.0981193 0.0  0.198433 0.0259458 0.0  0.209544 -0.0606965 0.0  0.215577 -0.151581 0.0  0.451686 -0.351036 0.0  0.32162 -0.231046 0.0  0.240236 -0.305927 0.0  0.212511 -0.322376 0.0  0.197209 -0.300982 0.0  0.189718 -0.27589 0.0  0.186989 -0.245746 0.0  0.187509 -0.207958 0.0  0.189343 -0.1612 0.0  0.192324 -0.108202 0.0  0.196617 -0.0496738 0.0  0.202722 0.0148112 0.0  0.211876 0.0864858 0.0  0.213341 0.156391 0.0  0.310133 -0.0188893 0.0  0.269699 0.0170161 0.0
            </DataArray>
            <DataArray type="Float64" Name="Displacement" NumberOfComponents="3" format="ascii">
               1.19869e-05 1.43685e-08 0.0  -1.19869e-05 -1.43685e-08 0.0  2.39532e-05 1.71528e-05 0.0  2.39121e-05 5.1401e-05 0.0  2.38711e-05 8.56491e-05 0.0  2.383e-05 0.000119897 0.0  2.3789e-05 0.000154145 0.0  2.37479e-05 0.000188394 0.0  2.37069e-05 0.000222642 0.0  2.36658e-05 0.00025689 0.0  2.36248e-05 0.000291138 0.0  2.35837e-05 0.000325386 0.0  2.35427e-05 0.000359634 0.0  2.35016e-05 0.000393882 0.0  2.34605e-05 0.000428131 0.0  2.34195e-05 0.000462379 0.0  -2.39942e-05 1.70953e-05 0.0  -2.40353e-05 5.13435e-05 0.0  -2.40763e-05 8.55916e-05 0.0  -2.41174e-05 0.00011984 0.0  -2.41584e-05 0.000154088 0.0  -2.41995e-05 0.000188336 0.0  -2.42406e-05 0.000222584 0.0  -2.42816e-05 0.000256832 0.0  -2.43227e-05 0.000291081 0.0  -2.43637e-05 0.000325329 0.0  -2.44048e-05 0.000359577 0.0  -2.44458e-05 0.000393825 0.0  -2.44869e-05 0.000428073 0.0  -2.45279e-05 0.000462321 0.0  1.14121e-05 0.000479489 0.0  -1.25616e-05 0.00047946 0.0
            </DataArray>
         </PointData>
      </Piece>
   </UnstructuredGrid>
</VTKFile>
