<?xml version="1.0"?>
<VTKFile type="UnstructuredGrid" version="0.1" byte_order="LittleEndian">
   <UnstructuredGrid>
      <Piece NumberOfPoints="32" NumberOfCells="0" >
         <Points>
            <DataArray type="Float64" Name="Position" NumberOfComponents="3" format="ascii">
               0  -0.005  0
               0  0.005  0
               0.00714286  -0.01  0
               0.0214286  -0.01  0
               0.0357143  -0.01  0
               0.05  -0.01  0
               0.0642857  -0.01  0
               0.0785714  -0.01  0
               0.0928571  -0.01  0
               0.107143  -0.01  0
               0.121429  -0.01  0
               0.135714  -0.01  0
               0.15  -0.01  0
               0.164286  -0.01  0
               0.178571  -0.01  0
               0.192857  -0.01  0
               0.00714286  0.01  0
               0.0214286  0.01  0
               0.0357143  0.01  0
               0.05  0.01  0
               0.0642857  0.01  0
               0.0785714  0.01  0
               0.0928571  0.01  0
               0.107143  0.01  0
               0.121429  0.01  0
               0.135714  0.01  0
               0.15  0.01  0
               0.164286  0.01  0
               0.178571  0.01  0
               0.192857  0.01  0
               0.2  -0.005  0
               0.2  0.005  0
            </DataArray>
         </Points>

         <Cells>
            <DataArray type="Int32" Name="connectivity" NumberOfComponents="1" format="ascii">

            </DataArray>
            <DataArray type="Int32" Name="offsets" NumberOfComponents="1" format="ascii">

            </DataArray>
            <DataArray type="UInt8"  Name="types" NumberOfComponents="1" format="ascii">

            </DataArray>
         </Cells>
         <PointData Scalars="Rank " Vectors="Force Displacement ">
            <DataArray type="UInt32" Name="Rank" NumberOfComponents="1" format="ascii">
               0 0 0 0 0 0 0 0 0 0 0 0 0 0 0 0 0 0 0 0 0 0 0 0 0 0 0 0 0 0 0 0
            </DataArray>
            <DataArray type="Float64" Name="Force" NumberOfComponents="3" format="ascii">
               2.03112 0.0208023 0.0  2.08997 -0.0222886 0.0  0.424712 -0.123514 0.0  0.285095 -0.191053 0.0  0.200842 -0.0230589 0.0  0.179849 0.0701659 0.0  0.168717 0.0913158 0.0  0.166181 0.100999 0.0  0.167104 0.1003 0.0  0.170067 0.0843859 0.0  0.173641 0.0550031 0.0  0.177786 0.0157113 0.0  0.182831 -0.0316976 0.0  0.18935 -0.0870039 0.0  0.197727 -0.151158 0.0  0.199464 -0.211586 0.0  0.451447 -0.462147 0.0  0.325501 -0.34479 0.0  0.245134 -0.40774 0.0  0.216337 -0.415621 0.0  0.200383 -0.389661 0.0  0.192879 -0.361616 0.0  0.19074 -0.3287 0.0  0.19184 -0.286036 0.0  0.194502 -0.233226 0.0  0.198358 -0.171056 0.0  0.203783 -0.0997008 0.0  0.211402 -0.017936 0.0  0.222245 0.0770003 0.0  0.227691 0.177096 0.0  0.311735 -0.0125008 0.0  0.333543 0.025102 0.0
            </DataArray>
            <DataArray type="Float64" Name="Displacement" NumberOfComponents="3" format="ascii">
               4.30188e-05 1.85065e-07 0.0  -4.30188e-05 -1.85065e-07 0.0  8.57733e-05 6.18256e-05 0.0  8.52445e-05 0.000184737 0.0  8.47158e-05 0.000307647 0.0  8.4187e-05 0.000430558 0.0  8.36582e-05 0.000553469 0.0  8.31295e-05 0.00067638 0.0  8.26007e-05 0.000799291 0.0  8.2072e-05 0.000922202 0.0  8.15432e-05 0.00104511 0.0  8.10145e-05 0.00116802 0.0  8.04857e-05 0.00129093 0.0  7.99569e-05 0.00141385 0.0  7.94282e-05 0.00153676 0.0  7.88994e-05 0.00165967 0.0  -8.6302e-05 6.10853e-05 0.0  -8.68308e-05 0.000183996 0.0  -8.73596e-05 0.000306907 0.0  -8.78883e-05 0.000429818 0.0  -8.84171e-05 0.000552729 0.0  -8.89458e-05 0.00067564 0.0  -8.94746e-05 0.000798551 0.0  -9.00033e-05 0.000921462 0.0  -9.05321e-05 0.00104437 0.0  -9.10609e-05 0.00116728 0.0  -9.15896e-05 0.00129019 0.0  -9.21184e-05 0.00141311 0.0  -9.26471e-05 0.00153602 0.0  -9.31759e-05 0.00165893 0.0  3.56162e-05 0.00172094 0.0  -5.04214e-05 0.00172057 0.0
            </DataArray>
         </PointData>
      </Piece>
   </UnstructuredGrid>
</VTKFile>
