<?xml version="1.0"?>
<VTKFile type="UnstructuredGrid" version="0.1" byte_order="LittleEndian">
   <UnstructuredGrid>
      <Piece NumberOfPoints="32" NumberOfCells="0" >
         <Points>
            <DataArray type="Float64" Name="Position" NumberOfComponents="3" format="ascii">
               0  -0.005  0
               0  0.005  0
               0.00714286  -0.01  0
               0.0214286  -0.01  0
               0.0357143  -0.01  0
               0.05  -0.01  0
               0.0642857  -0.01  0
               0.0785714  -0.01  0
               0.0928571  -0.01  0
               0.107143  -0.01  0
               0.121429  -0.01  0
               0.135714  -0.01  0
               0.15  -0.01  0
               0.164286  -0.01  0
               0.178571  -0.01  0
               0.192857  -0.01  0
               0.00714286  0.01  0
               0.0214286  0.01  0
               0.0357143  0.01  0
               0.05  0.01  0
               0.0642857  0.01  0
               0.0785714  0.01  0
               0.0928571  0.01  0
               0.107143  0.01  0
               0.121429  0.01  0
               0.135714  0.01  0
               0.15  0.01  0
               0.164286  0.01  0
               0.178571  0.01  0
               0.192857  0.01  0
               0.2  -0.005  0
               0.2  0.005  0
            </DataArray>
         </Points>

         <Cells>
            <DataArray type="Int32" Name="connectivity" NumberOfComponents="1" format="ascii">

            </DataArray>
            <DataArray type="Int32" Name="offsets" NumberOfComponents="1" format="ascii">

            </DataArray>
            <DataArray type="UInt8"  Name="types" NumberOfComponents="1" format="ascii">

            </DataArray>
         </Cells>
         <PointData Scalars="Rank " Vectors="Force Displacement ">
            <DataArray type="UInt32" Name="Rank" NumberOfComponents="1" format="ascii">
               0 0 0 0 0 0 0 0 0 0 0 0 0 0 0 0 0 0 0 0 0 0 0 0 0 0 0 0 0 0 0 0
            </DataArray>
            <DataArray type="Float64" Name="Force" NumberOfComponents="3" format="ascii">
               2.08773 0.020242 0.0  2.10199 -0.0276278 0.0  0.43154 0.152447 0.0  0.291375 0.0649374 0.0  0.208151 0.19482 0.0  0.185607 0.258289 0.0  0.173068 0.260409 0.0  0.169539 0.261865 0.0  0.171051 0.254149 0.0  0.174954 0.229791 0.0  0.179831 0.191123 0.0  0.185416 0.141538 0.0  0.192318 0.0820465 0.0  0.201156 0.0115537 0.0  0.21268 -0.071508 0.0  0.219386 -0.156535 0.0  0.450656 -0.30713 0.0  0.318996 -0.188909 0.0  0.236194 -0.267394 0.0  0.208164 -0.298587 0.0  0.194853 -0.291963 0.0  0.187927 -0.276075 0.0  0.18564 -0.252574 0.0  0.186154 -0.218683 0.0  0.187882 -0.174496 0.0  0.190439 -0.122567 0.0  0.194292 -0.0637063 0.0  0.199932 0.00274983 0.0  0.208044 0.0784394 0.0  0.209685 0.153852 0.0  0.30318 -0.0229512 0.0  0.274498 0.013971 0.0
            </DataArray>
            <DataArray type="Float64" Name="Displacement" NumberOfComponents="3" format="ascii">
               -2.22571e-06 0 0.0  2.22571e-06 0 0.0  -4.45213e-06 -3.1786e-06 0.0  -4.45354e-06 -9.53777e-06 0.0  -4.45496e-06 -1.58969e-05 0.0  -4.45637e-06 -2.22561e-05 0.0  -4.45779e-06 -2.86153e-05 0.0  -4.45921e-06 -3.49745e-05 0.0  -4.46062e-06 -4.13336e-05 0.0  -4.46204e-06 -4.76928e-05 0.0  -4.46345e-06 -5.4052e-05 0.0  -4.46487e-06 -6.04111e-05 0.0  -4.46628e-06 -6.67703e-05 0.0  -4.4677e-06 -7.31295e-05 0.0  -4.46911e-06 -7.94887e-05 0.0  -4.47053e-06 -8.58478e-05 0.0  4.45071e-06 -3.18058e-06 0.0  4.4493e-06 -9.53975e-06 0.0  4.44788e-06 -1.58989e-05 0.0  4.44647e-06 -2.22581e-05 0.0  4.44505e-06 -2.86173e-05 0.0  4.44364e-06 -3.49764e-05 0.0  4.44222e-06 -4.13356e-05 0.0  4.44081e-06 -4.76948e-05 0.0  4.43939e-06 -5.4054e-05 0.0  4.43797e-06 -6.04131e-05 0.0  4.43656e-06 -6.67723e-05 0.0  4.43514e-06 -7.31315e-05 0.0  4.43373e-06 -7.94906e-05 0.0  4.43231e-06 -8.58498e-05 0.0  -2.24553e-06 -8.90279e-05 0.0  2.2059e-06 -8.90289e-05 0.0
            </DataArray>
         </PointData>
      </Piece>
   </UnstructuredGrid>
</VTKFile>
