<?xml version="1.0"?>
<VTKFile type="UnstructuredGrid" version="0.1" byte_order="LittleEndian">
   <UnstructuredGrid>
      <Piece NumberOfPoints="32" NumberOfCells="0" >
         <Points>
            <DataArray type="Float64" Name="Position" NumberOfComponents="3" format="ascii">
               0  -0.005  0
               0  0.005  0
               0.00714286  -0.01  0
               0.0214286  -0.01  0
               0.0357143  -0.01  0
               0.05  -0.01  0
               0.0642857  -0.01  0
               0.0785714  -0.01  0
               0.0928571  -0.01  0
               0.107143  -0.01  0
               0.121429  -0.01  0
               0.135714  -0.01  0
               0.15  -0.01  0
               0.164286  -0.01  0
               0.178571  -0.01  0
               0.192857  -0.01  0
               0.00714286  0.01  0
               0.0214286  0.01  0
               0.0357143  0.01  0
               0.05  0.01  0
               0.0642857  0.01  0
               0.0785714  0.01  0
               0.0928571  0.01  0
               0.107143  0.01  0
               0.121429  0.01  0
               0.135714  0.01  0
               0.15  0.01  0
               0.164286  0.01  0
               0.178571  0.01  0
               0.192857  0.01  0
               0.2  -0.005  0
               0.2  0.005  0
            </DataArray>
         </Points>

         <Cells>
            <DataArray type="Int32" Name="connectivity" NumberOfComponents="1" format="ascii">

            </DataArray>
            <DataArray type="Int32" Name="offsets" NumberOfComponents="1" format="ascii">

            </DataArray>
            <DataArray type="UInt8"  Name="types" NumberOfComponents="1" format="ascii">

            </DataArray>
         </Cells>
         <PointData Scalars="Rank " Vectors="Force Displacement ">
            <DataArray type="UInt32" Name="Rank" NumberOfComponents="1" format="ascii">
               0 0 0 0 0 0 0 0 0 0 0 0 0 0 0 0 0 0 0 0 0 0 0 0 0 0 0 0 0 0 0 0
            </DataArray>
            <DataArray type="Float64" Name="Force" NumberOfComponents="3" format="ascii">
               2.08066 0.0200378 0.0  2.10237 -0.0274728 0.0  0.431585 0.10645 0.0  0.292945 0.0212456 0.0  0.209881 0.158541 0.0  0.187752 0.228557 0.0  0.175372 0.232843 0.0  0.171286 0.237082 0.0  0.171719 0.231461 0.0  0.174817 0.209265 0.0  0.178873 0.173004 0.0  0.183471 0.125806 0.0  0.189216 0.0688508 0.0  0.196754 0.00172269 0.0  0.206696 -0.0774938 0.0  0.210974 -0.158072 0.0  0.449426 -0.341997 0.0  0.317589 -0.225429 0.0  0.234805 -0.301607 0.0  0.206883 -0.326233 0.0  0.192989 -0.31402 0.0  0.186236 -0.295292 0.0  0.184695 -0.269771 0.0  0.186075 -0.234181 0.0  0.188733 -0.187991 0.0  0.192399 -0.133555 0.0  0.197464 -0.0716974 0.0  0.204463 -0.00176716 0.0  0.214271 0.0780774 0.0  0.217447 0.157903 0.0  0.306176 -0.0171207 0.0  0.301354 0.0205222 0.0
            </DataArray>
            <DataArray type="Float64" Name="Displacement" NumberOfComponents="3" format="ascii">
               5.6511e-06 3.1935e-09 0.0  -5.6511e-06 -3.1935e-09 0.0  1.12976e-05 8.07939e-06 0.0  1.12885e-05 2.42254e-05 0.0  1.12794e-05 4.03714e-05 0.0  1.12703e-05 5.65174e-05 0.0  1.12611e-05 7.26634e-05 0.0  1.1252e-05 8.88094e-05 0.0  1.12429e-05 0.000104955 0.0  1.12338e-05 0.000121101 0.0  1.12247e-05 0.000137247 0.0  1.12155e-05 0.000153393 0.0  1.12064e-05 0.000169539 0.0  1.11973e-05 0.000185685 0.0  1.11882e-05 0.000201832 0.0  1.1179e-05 0.000217978 0.0  -1.13068e-05 8.06662e-06 0.0  -1.13159e-05 2.42126e-05 0.0  -1.1325e-05 4.03586e-05 0.0  -1.13341e-05 5.65046e-05 0.0  -1.13433e-05 7.26507e-05 0.0  -1.13524e-05 8.87967e-05 0.0  -1.13615e-05 0.000104943 0.0  -1.13706e-05 0.000121089 0.0  -1.13798e-05 0.000137235 0.0  -1.13889e-05 0.000153381 0.0  -1.1398e-05 0.000169527 0.0  -1.14071e-05 0.000185673 0.0  -1.14163e-05 0.000201819 0.0  -1.14254e-05 0.000217965 0.0  5.52336e-06 0.000226047 0.0  -5.77884e-06 0.000226041 0.0
            </DataArray>
         </PointData>
      </Piece>
   </UnstructuredGrid>
</VTKFile>
