<?xml version="1.0"?>
<VTKFile type="UnstructuredGrid" version="0.1" byte_order="LittleEndian">
   <UnstructuredGrid>
      <Piece NumberOfPoints="32" NumberOfCells="0" >
         <Points>
            <DataArray type="Float64" Name="Position" NumberOfComponents="3" format="ascii">
               0  -0.005  0
               0  0.005  0
               0.00714286  -0.01  0
               0.0214286  -0.01  0
               0.0357143  -0.01  0
               0.05  -0.01  0
               0.0642857  -0.01  0
               0.0785714  -0.01  0
               0.0928571  -0.01  0
               0.107143  -0.01  0
               0.121429  -0.01  0
               0.135714  -0.01  0
               0.15  -0.01  0
               0.164286  -0.01  0
               0.178571  -0.01  0
               0.192857  -0.01  0
               0.00714286  0.01  0
               0.0214286  0.01  0
               0.0357143  0.01  0
               0.05  0.01  0
               0.0642857  0.01  0
               0.0785714  0.01  0
               0.0928571  0.01  0
               0.107143  0.01  0
               0.121429  0.01  0
               0.135714  0.01  0
               0.15  0.01  0
               0.164286  0.01  0
               0.178571  0.01  0
               0.192857  0.01  0
               0.2  -0.005  0
               0.2  0.005  0
            </DataArray>
         </Points>

         <Cells>
            <DataArray type="Int32" Name="connectivity" NumberOfComponents="1" format="ascii">

            </DataArray>
            <DataArray type="Int32" Name="offsets" NumberOfComponents="1" format="ascii">

            </DataArray>
            <DataArray type="UInt8"  Name="types" NumberOfComponents="1" format="ascii">

            </DataArray>
         </Cells>
         <PointData Scalars="Rank " Vectors="Force Displacement ">
            <DataArray type="UInt32" Name="Rank" NumberOfComponents="1" format="ascii">
               0 0 0 0 0 0 0 0 0 0 0 0 0 0 0 0 0 0 0 0 0 0 0 0 0 0 0 0 0 0 0 0
            </DataArray>
            <DataArray type="Float64" Name="Force" NumberOfComponents="3" format="ascii">
               2.08194 0.00175436 0.0  2.07659 -0.0445073 0.0  0.455386 0.13995 0.0  0.337071 -0.0158041 0.0  0.256688 0.000213182 0.0  0.224318 -0.0509859 0.0  0.206124 -0.132084 0.0  0.195428 -0.20602 0.0  0.189396 -0.273359 0.0  0.186458 -0.33685 0.0  0.185356 -0.39492 0.0  0.185315 -0.444988 0.0  0.186838 -0.483906 0.0  0.187945 -0.512545 0.0  0.195691 -0.517066 0.0  0.196338 -0.464318 0.0  0.414891 -0.269291 0.0  0.2714 -0.247117 0.0  0.180396 -0.466595 0.0  0.156064 -0.616764 0.0  0.146456 -0.688264 0.0  0.144778 -0.74097 0.0  0.147864 -0.77547 0.0  0.152084 -0.786343 0.0  0.16072 -0.761609 0.0  0.169249 -0.709673 0.0  0.179724 -0.629725 0.0  0.193474 -0.514525 0.0  0.211895 -0.353205 0.0  0.226372 -0.136131 0.0  0.299413 -0.0311213 0.0  0.326252 0.00789356 0.0
            </DataArray>
            <DataArray type="Float64" Name="Displacement" NumberOfComponents="3" format="ascii">
               -5.69228e-05 3.24031e-07 0.0  5.69228e-05 -3.24031e-07 0.0  -0.000114309 -8.06702e-05 0.0  -0.000115234 -0.000243307 0.0  -0.00011616 -0.000405943 0.0  -0.000117086 -0.00056858 0.0  -0.000118012 -0.000731217 0.0  -0.000118938 -0.000893853 0.0  -0.000119863 -0.00105649 0.0  -0.000120789 -0.00121913 0.0  -0.000121715 -0.00138176 0.0  -0.000122641 -0.0015444 0.0  -0.000123567 -0.00170704 0.0  -0.000124492 -0.00186967 0.0  -0.000125418 -0.00203231 0.0  -0.000126344 -0.00219495 0.0  0.000113383 -8.19664e-05 0.0  0.000112457 -0.000244603 0.0  0.000111531 -0.00040724 0.0  0.000110605 -0.000569876 0.0  0.00010968 -0.000732513 0.0  0.000108754 -0.000895149 0.0  0.000107828 -0.00105779 0.0  0.000106902 -0.00122042 0.0  0.000105976 -0.00138306 0.0  0.00010505 -0.0015457 0.0  0.000104125 -0.00170833 0.0  0.000103199 -0.00187097 0.0  0.000102273 -0.00203361 0.0  0.000101347 -0.00219624 0.0  -6.98841e-05 -0.00227659 0.0  4.39616e-05 -0.00227724 0.0
            </DataArray>
         </PointData>
      </Piece>
   </UnstructuredGrid>
</VTKFile>
