<?xml version="1.0"?>
<VTKFile type="UnstructuredGrid" version="0.1" byte_order="LittleEndian">
   <UnstructuredGrid>
      <Piece NumberOfPoints="32" NumberOfCells="0" >
         <Points>
            <DataArray type="Float64" Name="Position" NumberOfComponents="3" format="ascii">
               0  -0.005  0
               0  0.005  0
               0.00714286  -0.01  0
               0.0214286  -0.01  0
               0.0357143  -0.01  0
               0.05  -0.01  0
               0.0642857  -0.01  0
               0.0785714  -0.01  0
               0.0928571  -0.01  0
               0.107143  -0.01  0
               0.121429  -0.01  0
               0.135714  -0.01  0
               0.15  -0.01  0
               0.164286  -0.01  0
               0.178571  -0.01  0
               0.192857  -0.01  0
               0.00714286  0.01  0
               0.0214286  0.01  0
               0.0357143  0.01  0
               0.05  0.01  0
               0.0642857  0.01  0
               0.0785714  0.01  0
               0.0928571  0.01  0
               0.107143  0.01  0
               0.121429  0.01  0
               0.135714  0.01  0
               0.15  0.01  0
               0.164286  0.01  0
               0.178571  0.01  0
               0.192857  0.01  0
               0.2  -0.005  0
               0.2  0.005  0
            </DataArray>
         </Points>

         <Cells>
            <DataArray type="Int32" Name="connectivity" NumberOfComponents="1" format="ascii">

            </DataArray>
            <DataArray type="Int32" Name="offsets" NumberOfComponents="1" format="ascii">

            </DataArray>
            <DataArray type="UInt8"  Name="types" NumberOfComponents="1" format="ascii">

            </DataArray>
         </Cells>
         <PointData Scalars="Rank " Vectors="Force Displacement ">
            <DataArray type="UInt32" Name="Rank" NumberOfComponents="1" format="ascii">
               0 0 0 0 0 0 0 0 0 0 0 0 0 0 0 0 0 0 0 0 0 0 0 0 0 0 0 0 0 0 0 0
            </DataArray>
            <DataArray type="Float64" Name="Force" NumberOfComponents="3" format="ascii">
               2.10669 0.0149401 0.0  2.07828 -0.0321688 0.0  0.4396 0.342092 0.0  0.304206 0.241133 0.0  0.222614 0.319441 0.0  0.192611 0.353525 0.0  0.180946 0.362427 0.0  0.175795 0.355771 0.0  0.176225 0.337909 0.0  0.179365 0.306841 0.0  0.183568 0.261676 0.0  0.188658 0.204953 0.0  0.195223 0.13796 0.0  0.204055 0.0596738 0.0  0.216263 -0.0332035 0.0  0.222959 -0.133286 0.0  0.445813 -0.108587 0.0  0.312063 -0.00227554 0.0  0.230017 -0.100355 0.0  0.197681 -0.138648 0.0  0.183965 -0.151435 0.0  0.180911 -0.16338 0.0  0.180462 -0.154655 0.0  0.18228 -0.130111 0.0  0.184927 -0.0943031 0.0  0.188091 -0.0496963 0.0  0.192211 0.00227019 0.0  0.19783 0.0612084 0.0  0.205383 0.127998 0.0  0.205565 0.189465 0.0  0.310322 -0.0207551 0.0  0.30477 0.0172357 0.0
            </DataArray>
            <DataArray type="Float64" Name="Displacement" NumberOfComponents="3" format="ascii">
               -4.51494e-05 2.03851e-07 0.0  4.51494e-05 -2.03851e-07 0.0  -9.059e-05 -6.40914e-05 0.0  -9.11725e-05 -0.00019309 0.0  -9.17549e-05 -0.000322088 0.0  -9.23373e-05 -0.000451086 0.0  -9.29197e-05 -0.000580085 0.0  -9.35022e-05 -0.000709083 0.0  -9.40846e-05 -0.000838081 0.0  -9.4667e-05 -0.000967079 0.0  -9.52495e-05 -0.00109608 0.0  -9.58319e-05 -0.00122508 0.0  -9.64143e-05 -0.00135407 0.0  -9.69968e-05 -0.00148307 0.0  -9.75792e-05 -0.00161207 0.0  -9.81616e-05 -0.00174107 0.0  9.00076e-05 -6.49068e-05 0.0  8.94252e-05 -0.000193905 0.0  8.88427e-05 -0.000322903 0.0  8.82603e-05 -0.000451902 0.0  8.76779e-05 -0.0005809 0.0  8.70954e-05 -0.000709898 0.0  8.6513e-05 -0.000838897 0.0  8.59306e-05 -0.000967895 0.0  8.53481e-05 -0.00109689 0.0  8.47657e-05 -0.00122589 0.0  8.41833e-05 -0.00135489 0.0  8.36008e-05 -0.00148389 0.0  8.30184e-05 -0.00161289 0.0  8.2436e-05 -0.00174188 0.0  -5.33034e-05 -0.00180577 0.0  3.69954e-05 -0.00180618 0.0
            </DataArray>
         </PointData>
      </Piece>
   </UnstructuredGrid>
</VTKFile>
