<?xml version="1.0"?>
<VTKFile type="UnstructuredGrid" version="0.1" byte_order="LittleEndian">
   <UnstructuredGrid>
      <Piece NumberOfPoints="32" NumberOfCells="0" >
         <Points>
            <DataArray type="Float64" Name="Position" NumberOfComponents="3" format="ascii">
               0  -0.005  0
               0  0.005  0
               0.00714286  -0.01  0
               0.0214286  -0.01  0
               0.0357143  -0.01  0
               0.05  -0.01  0
               0.0642857  -0.01  0
               0.0785714  -0.01  0
               0.0928571  -0.01  0
               0.107143  -0.01  0
               0.121429  -0.01  0
               0.135714  -0.01  0
               0.15  -0.01  0
               0.164286  -0.01  0
               0.178571  -0.01  0
               0.192857  -0.01  0
               0.00714286  0.01  0
               0.0214286  0.01  0
               0.0357143  0.01  0
               0.05  0.01  0
               0.0642857  0.01  0
               0.0785714  0.01  0
               0.0928571  0.01  0
               0.107143  0.01  0
               0.121429  0.01  0
               0.135714  0.01  0
               0.15  0.01  0
               0.164286  0.01  0
               0.178571  0.01  0
               0.192857  0.01  0
               0.2  -0.005  0
               0.2  0.005  0
            </DataArray>
         </Points>

         <Cells>
            <DataArray type="Int32" Name="connectivity" NumberOfComponents="1" format="ascii">

            </DataArray>
            <DataArray type="Int32" Name="offsets" NumberOfComponents="1" format="ascii">

            </DataArray>
            <DataArray type="UInt8"  Name="types" NumberOfComponents="1" format="ascii">

            </DataArray>
         </Cells>
         <PointData Scalars="Rank " Vectors="Force Displacement ">
            <DataArray type="UInt32" Name="Rank" NumberOfComponents="1" format="ascii">
               0 0 0 0 0 0 0 0 0 0 0 0 0 0 0 0 0 0 0 0 0 0 0 0 0 0 0 0 0 0 0 0
            </DataArray>
            <DataArray type="Float64" Name="Force" NumberOfComponents="3" format="ascii">
               2.12541 0.00602014 0.0  2.05214 -0.0362388 0.0  0.448522 0.51652 0.0  0.323463 0.407561 0.0  0.244641 0.471182 0.0  0.216493 0.479379 0.0  0.200431 0.453276 0.0  0.192925 0.424882 0.0  0.190755 0.391263 0.0  0.191795 0.347658 0.0  0.19466 0.293911 0.0  0.198634 0.230798 0.0  0.204275 0.157923 0.0  0.212265 0.0734246 0.0  0.224414 -0.0251093 0.0  0.230131 -0.133147 0.0  0.433666 0.106257 0.0  0.294691 0.18215 0.0  0.20757 0.0138357 0.0  0.185407 -0.0795576 0.0  0.174085 -0.0990743 0.0  0.170594 -0.106631 0.0  0.170408 -0.107128 0.0  0.172747 -0.0926797 0.0  0.176221 -0.0650884 0.0  0.180367 -0.0276853 0.0  0.185364 0.0177862 0.0  0.191693 0.0709763 0.0  0.199726 0.132451 0.0  0.200093 0.188111 0.0  0.309432 -0.0251343 0.0  0.30162 0.0128139 0.0
            </DataArray>
            <DataArray type="Float64" Name="Displacement" NumberOfComponents="3" format="ascii">
               -9.29703e-05 8.64423e-07 0.0  9.29703e-05 -8.64423e-07 0.0  -0.000187176 -0.000131086 0.0  -0.000189645 -0.000396715 0.0  -0.000192115 -0.000662345 0.0  -0.000194585 -0.000927974 0.0  -0.000197055 -0.0011936 0.0  -0.000199524 -0.00145923 0.0  -0.000201994 -0.00172486 0.0  -0.000204464 -0.00199049 0.0  -0.000206934 -0.00225612 0.0  -0.000209404 -0.00252175 0.0  -0.000211873 -0.00278738 0.0  -0.000214343 -0.00305301 0.0  -0.000216813 -0.00331864 0.0  -0.000219283 -0.00358427 0.0  0.000184706 -0.000134544 0.0  0.000182236 -0.000400173 0.0  0.000179766 -0.000665803 0.0  0.000177296 -0.000931432 0.0  0.000174827 -0.00119706 0.0  0.000172357 -0.00146269 0.0  0.000169887 -0.00172832 0.0  0.000167417 -0.00199395 0.0  0.000164948 -0.00225958 0.0  0.000162478 -0.00252521 0.0  0.000160008 -0.00279084 0.0  0.000157538 -0.00305647 0.0  0.000155068 -0.0033221 0.0  0.000152599 -0.00358773 0.0  -0.000127547 -0.00371795 0.0  5.83934e-05 -0.00371968 0.0
            </DataArray>
         </PointData>
      </Piece>
   </UnstructuredGrid>
</VTKFile>
