<?xml version="1.0"?>
<VTKFile type="UnstructuredGrid" version="0.1" byte_order="LittleEndian">
   <UnstructuredGrid>
      <Piece NumberOfPoints="32" NumberOfCells="0" >
         <Points>
            <DataArray type="Float64" Name="Position" NumberOfComponents="3" format="ascii">
               0  -0.005  0
               0  0.005  0
               0.00714286  -0.01  0
               0.0214286  -0.01  0
               0.0357143  -0.01  0
               0.05  -0.01  0
               0.0642857  -0.01  0
               0.0785714  -0.01  0
               0.0928571  -0.01  0
               0.107143  -0.01  0
               0.121429  -0.01  0
               0.135714  -0.01  0
               0.15  -0.01  0
               0.164286  -0.01  0
               0.178571  -0.01  0
               0.192857  -0.01  0
               0.00714286  0.01  0
               0.0214286  0.01  0
               0.0357143  0.01  0
               0.05  0.01  0
               0.0642857  0.01  0
               0.0785714  0.01  0
               0.0928571  0.01  0
               0.107143  0.01  0
               0.121429  0.01  0
               0.135714  0.01  0
               0.15  0.01  0
               0.164286  0.01  0
               0.178571  0.01  0
               0.192857  0.01  0
               0.2  -0.005  0
               0.2  0.005  0
            </DataArray>
         </Points>

         <Cells>
            <DataArray type="Int32" Name="connectivity" NumberOfComponents="1" format="ascii">

            </DataArray>
            <DataArray type="Int32" Name="offsets" NumberOfComponents="1" format="ascii">

            </DataArray>
            <DataArray type="UInt8"  Name="types" NumberOfComponents="1" format="ascii">

            </DataArray>
         </Cells>
         <PointData Scalars="Rank " Vectors="Force Displacement ">
            <DataArray type="UInt32" Name="Rank" NumberOfComponents="1" format="ascii">
               0 0 0 0 0 0 0 0 0 0 0 0 0 0 0 0 0 0 0 0 0 0 0 0 0 0 0 0 0 0 0 0
            </DataArray>
            <DataArray type="Float64" Name="Force" NumberOfComponents="3" format="ascii">
               2.03189 0.0240226 0.0  2.13181 -0.010908 0.0  0.415225 -0.283675 0.0  0.271562 -0.321407 0.0  0.184499 -0.109869 0.0  0.162851 0.0135208 0.0  0.154352 0.0557653 0.0  0.15335 0.0806769 0.0  0.155458 0.0925524 0.0  0.158912 0.0874151 0.0  0.164003 0.066951 0.0  0.169498 0.0349954 0.0  0.175661 -0.00608408 0.0  0.18318 -0.056268 0.0  0.192429 -0.116389 0.0  0.194856 -0.173275 0.0  0.461313 -0.654152 0.0  0.348038 -0.525003 0.0  0.26945 -0.558894 0.0  0.237202 -0.540639 0.0  0.219453 -0.49461 0.0  0.209862 -0.450175 0.0  0.205423 -0.404438 0.0  0.20448 -0.351751 0.0  0.20567 -0.290884 0.0  0.20837 -0.222264 0.0  0.212799 -0.145659 0.0  0.219136 -0.0590584 0.0  0.23011 0.0395375 0.0  0.234463 0.145851 0.0  0.285319 -0.00864395 0.0  0.309273 0.0295398 0.0
            </DataArray>
            <DataArray type="Float64" Name="Displacement" NumberOfComponents="3" format="ascii">
               8.77145e-05 7.69443e-07 0.0  -8.77145e-05 -7.69443e-07 0.0  0.00017433 0.000126845 0.0  0.000172131 0.000377458 0.0  0.000169933 0.000628071 0.0  0.000167735 0.000878684 0.0  0.000165536 0.0011293 0.0  0.000163338 0.00137991 0.0  0.000161139 0.00163052 0.0  0.000158941 0.00188114 0.0  0.000156743 0.00213175 0.0  0.000154544 0.00238236 0.0  0.000152346 0.00263297 0.0  0.000150147 0.00288359 0.0  0.000147949 0.0031342 0.0  0.00014575 0.00338481 0.0  -0.000176528 0.000123768 0.0  -0.000178727 0.00037438 0.0  -0.000180925 0.000624993 0.0  -0.000183123 0.000875606 0.0  -0.000185322 0.00112622 0.0  -0.00018752 0.00137683 0.0  -0.000189719 0.00162744 0.0  -0.000191917 0.00187806 0.0  -0.000194115 0.00212867 0.0  -0.000196314 0.00237928 0.0  -0.000198512 0.0026299 0.0  -0.000200711 0.00288051 0.0  -0.000202909 0.00313112 0.0  -0.000205107 0.00338173 0.0  5.69368e-05 0.00350935 0.0  -0.000118492 0.00350781 0.0
            </DataArray>
         </PointData>
      </Piece>
   </UnstructuredGrid>
</VTKFile>
