<?xml version="1.0"?>
<VTKFile type="UnstructuredGrid" version="0.1" byte_order="LittleEndian">
   <UnstructuredGrid>
      <Piece NumberOfPoints="32" NumberOfCells="0" >
         <Points>
            <DataArray type="Float64" Name="Position" NumberOfComponents="3" format="ascii">
               0  -0.005  0
               0  0.005  0
               0.00714286  -0.01  0
               0.0214286  -0.01  0
               0.0357143  -0.01  0
               0.05  -0.01  0
               0.0642857  -0.01  0
               0.0785714  -0.01  0
               0.0928571  -0.01  0
               0.107143  -0.01  0
               0.121429  -0.01  0
               0.135714  -0.01  0
               0.15  -0.01  0
               0.164286  -0.01  0
               0.178571  -0.01  0
               0.192857  -0.01  0
               0.00714286  0.01  0
               0.0214286  0.01  0
               0.0357143  0.01  0
               0.05  0.01  0
               0.0642857  0.01  0
               0.0785714  0.01  0
               0.0928571  0.01  0
               0.107143  0.01  0
               0.121429  0.01  0
               0.135714  0.01  0
               0.15  0.01  0
               0.164286  0.01  0
               0.178571  0.01  0
               0.192857  0.01  0
               0.2  -0.005  0
               0.2  0.005  0
            </DataArray>
         </Points>

         <Cells>
            <DataArray type="Int32" Name="connectivity" NumberOfComponents="1" format="ascii">

            </DataArray>
            <DataArray type="Int32" Name="offsets" NumberOfComponents="1" format="ascii">

            </DataArray>
            <DataArray type="UInt8"  Name="types" NumberOfComponents="1" format="ascii">

            </DataArray>
         </Cells>
         <PointData Scalars="Rank " Vectors="Force Displacement ">
            <DataArray type="UInt32" Name="Rank" NumberOfComponents="1" format="ascii">
               0 0 0 0 0 0 0 0 0 0 0 0 0 0 0 0 0 0 0 0 0 0 0 0 0 0 0 0 0 0 0 0
            </DataArray>
            <DataArray type="Float64" Name="Force" NumberOfComponents="3" format="ascii">
               2.08569 0.0252095 0.0  2.10132 -0.0229002 0.0  0.42391 0.171963 0.0  0.279111 0.0962854 0.0  0.194592 0.237296 0.0  0.172165 0.311209 0.0  0.162208 0.325533 0.0  0.161154 0.330762 0.0  0.164293 0.327234 0.0  0.171646 0.305675 0.0  0.179755 0.265713 0.0  0.188903 0.210694 0.0  0.199536 0.140419 0.0  0.212563 0.0535765 0.0  0.229496 -0.0523861 0.0  0.242371 -0.172139 0.0  0.456952 -0.279213 0.0  0.330306 -0.152264 0.0  0.250049 -0.227325 0.0  0.221423 -0.24594 0.0  0.205736 -0.22623 0.0  0.196543 -0.200756 0.0  0.191119 -0.171514 0.0  0.188164 -0.134614 0.0  0.186542 -0.0923167 0.0  0.185908 -0.047273 0.0  0.186349 9.2785e-05 0.0  0.188058 0.0500184 0.0  0.19192 0.103348 0.0  0.187525 0.153546 0.0  0.35307 -0.0266953 0.0  0.239353 -0.00195633 0.0
            </DataArray>
            <DataArray type="Float64" Name="Displacement" NumberOfComponents="3" format="ascii">
               2.12438e-06 0 0.0  -2.12438e-06 0 0.0  4.24813e-06 3.03574e-06 0.0  4.24684e-06 9.10541e-06 0.0  4.24555e-06 1.51751e-05 0.0  4.24426e-06 2.12448e-05 0.0  4.24297e-06 2.73144e-05 0.0  4.24168e-06 3.33841e-05 0.0  4.24039e-06 3.94538e-05 0.0  4.2391e-06 4.55234e-05 0.0  4.23781e-06 5.15931e-05 0.0  4.23652e-06 5.76628e-05 0.0  4.23523e-06 6.37325e-05 0.0  4.23394e-06 6.98021e-05 0.0  4.23265e-06 7.58718e-05 0.0  4.23136e-06 8.19415e-05 0.0  -4.24941e-06 3.03393e-06 0.0  -4.2507e-06 9.1036e-06 0.0  -4.25199e-06 1.51733e-05 0.0  -4.25328e-06 2.12429e-05 0.0  -4.25457e-06 2.73126e-05 0.0  -4.25586e-06 3.33823e-05 0.0  -4.25715e-06 3.9452e-05 0.0  -4.25844e-06 4.55216e-05 0.0  -4.25973e-06 5.15913e-05 0.0  -4.26102e-06 5.7661e-05 0.0  -4.26231e-06 6.37306e-05 0.0  -4.2636e-06 6.98003e-05 0.0  -4.26489e-06 7.587e-05 0.0  -4.26618e-06 8.19397e-05 0.0  2.10633e-06 8.49759e-05 0.0  -2.14244e-06 8.49749e-05 0.0
            </DataArray>
         </PointData>
      </Piece>
   </UnstructuredGrid>
</VTKFile>
