<?xml version="1.0"?>
<VTKFile type="UnstructuredGrid" version="0.1" byte_order="LittleEndian">
   <UnstructuredGrid>
      <Piece NumberOfPoints="32" NumberOfCells="0" >
         <Points>
            <DataArray type="Float64" Name="Position" NumberOfComponents="3" format="ascii">
               0  -0.005  0
               0  0.005  0
               0.00714286  -0.01  0
               0.0214286  -0.01  0
               0.0357143  -0.01  0
               0.05  -0.01  0
               0.0642857  -0.01  0
               0.0785714  -0.01  0
               0.0928571  -0.01  0
               0.107143  -0.01  0
               0.121429  -0.01  0
               0.135714  -0.01  0
               0.15  -0.01  0
               0.164286  -0.01  0
               0.178571  -0.01  0
               0.192857  -0.01  0
               0.00714286  0.01  0
               0.0214286  0.01  0
               0.0357143  0.01  0
               0.05  0.01  0
               0.0642857  0.01  0
               0.0785714  0.01  0
               0.0928571  0.01  0
               0.107143  0.01  0
               0.121429  0.01  0
               0.135714  0.01  0
               0.15  0.01  0
               0.164286  0.01  0
               0.178571  0.01  0
               0.192857  0.01  0
               0.2  -0.005  0
               0.2  0.005  0
            </DataArray>
         </Points>

         <Cells>
            <DataArray type="Int32" Name="connectivity" NumberOfComponents="1" format="ascii">

            </DataArray>
            <DataArray type="Int32" Name="offsets" NumberOfComponents="1" format="ascii">

            </DataArray>
            <DataArray type="UInt8"  Name="types" NumberOfComponents="1" format="ascii">

            </DataArray>
         </Cells>
         <PointData Scalars="Rank " Vectors="Force Displacement ">
            <DataArray type="UInt32" Name="Rank" NumberOfComponents="1" format="ascii">
               0 0 0 0 0 0 0 0 0 0 0 0 0 0 0 0 0 0 0 0 0 0 0 0 0 0 0 0 0 0 0 0
            </DataArray>
            <DataArray type="Float64" Name="Force" NumberOfComponents="3" format="ascii">
               2.02811 0.0196655 0.0  2.06563 -0.025974 0.0  0.429663 -0.0379973 0.0  0.291239 -0.118126 0.0  0.208012 0.0291516 0.0  0.186397 0.105555 0.0  0.174535 0.111754 0.0  0.169736 0.114159 0.0  0.170185 0.112649 0.0  0.1729 0.0935759 0.0  0.176464 0.0608088 0.0  0.180576 0.0181808 0.0  0.185695 -0.0326713 0.0  0.192416 -0.0916439 0.0  0.201304 -0.15989 0.0  0.203705 -0.225705 0.0  0.44871 -0.354585 0.0  0.318145 -0.239664 0.0  0.236079 -0.312798 0.0  0.208005 -0.332519 0.0  0.193312 -0.316737 0.0  0.186416 -0.296297 0.0  0.184949 -0.269497 0.0  0.186567 -0.23224 0.0  0.189534 -0.18364 0.0  0.193674 -0.125799 0.0  0.199235 -0.0589225 0.0  0.206908 0.018031 0.0  0.217548 0.107573 0.0  0.222705 0.200491 0.0  0.329405 -0.0146244 0.0  0.345918 0.0226484 0.0
            </DataArray>
            <DataArray type="Float64" Name="Displacement" NumberOfComponents="3" format="ascii">
               2.10915e-05 4.44853e-08 0.0  -2.10915e-05 -4.44853e-08 0.0  4.21194e-05 3.02197e-05 0.0  4.19923e-05 9.04811e-05 0.0  4.18652e-05 0.000150742 0.0  4.17381e-05 0.000211004 0.0  4.1611e-05 0.000271265 0.0  4.14839e-05 0.000331527 0.0  4.13568e-05 0.000391788 0.0  4.12297e-05 0.000452049 0.0  4.11026e-05 0.000512311 0.0  4.09755e-05 0.000572572 0.0  4.08484e-05 0.000632834 0.0  4.07213e-05 0.000693095 0.0  4.05942e-05 0.000753357 0.0  4.04671e-05 0.000813618 0.0  -4.22465e-05 3.00417e-05 0.0  -4.23736e-05 9.03031e-05 0.0  -4.25007e-05 0.000150565 0.0  -4.26278e-05 0.000210826 0.0  -4.27549e-05 0.000271087 0.0  -4.2882e-05 0.000331349 0.0  -4.30091e-05 0.00039161 0.0  -4.31362e-05 0.000451872 0.0  -4.32633e-05 0.000512133 0.0  -4.33904e-05 0.000572394 0.0  -4.35175e-05 0.000632656 0.0  -4.36446e-05 0.000692917 0.0  -4.37717e-05 0.000753179 0.0  -4.38988e-05 0.00081344 0.0  1.93121e-05 0.000843704 0.0  -2.28709e-05 0.000843615 0.0
            </DataArray>
         </PointData>
      </Piece>
   </UnstructuredGrid>
</VTKFile>
