<?xml version="1.0"?>
<VTKFile type="UnstructuredGrid" version="0.1" byte_order="LittleEndian">
   <UnstructuredGrid>
      <Piece NumberOfPoints="32" NumberOfCells="0" >
         <Points>
            <DataArray type="Float64" Name="Position" NumberOfComponents="3" format="ascii">
               0  -0.005  0
               0  0.005  0
               0.00714286  -0.01  0
               0.0214286  -0.01  0
               0.0357143  -0.01  0
               0.05  -0.01  0
               0.0642857  -0.01  0
               0.0785714  -0.01  0
               0.0928571  -0.01  0
               0.107143  -0.01  0
               0.121429  -0.01  0
               0.135714  -0.01  0
               0.15  -0.01  0
               0.164286  -0.01  0
               0.178571  -0.01  0
               0.192857  -0.01  0
               0.00714286  0.01  0
               0.0214286  0.01  0
               0.0357143  0.01  0
               0.05  0.01  0
               0.0642857  0.01  0
               0.0785714  0.01  0
               0.0928571  0.01  0
               0.107143  0.01  0
               0.121429  0.01  0
               0.135714  0.01  0
               0.15  0.01  0
               0.164286  0.01  0
               0.178571  0.01  0
               0.192857  0.01  0
               0.2  -0.005  0
               0.2  0.005  0
            </DataArray>
         </Points>

         <Cells>
            <DataArray type="Int32" Name="connectivity" NumberOfComponents="1" format="ascii">

            </DataArray>
            <DataArray type="Int32" Name="offsets" NumberOfComponents="1" format="ascii">

            </DataArray>
            <DataArray type="UInt8"  Name="types" NumberOfComponents="1" format="ascii">

            </DataArray>
         </Cells>
         <PointData Scalars="Rank " Vectors="Force Displacement ">
            <DataArray type="UInt32" Name="Rank" NumberOfComponents="1" format="ascii">
               0 0 0 0 0 0 0 0 0 0 0 0 0 0 0 0 0 0 0 0 0 0 0 0 0 0 0 0 0 0 0 0
            </DataArray>
            <DataArray type="Float64" Name="Force" NumberOfComponents="3" format="ascii">
               2.07395 0.0284118 0.0  2.10799 -0.0185091 0.0  0.419195 0.0856219 0.0  0.274861 0.0239068 0.0  0.189302 0.190632 0.0  0.167434 0.28829 0.0  0.158622 0.318415 0.0  0.158152 0.336607 0.0  0.162341 0.345374 0.0  0.168822 0.332226 0.0  0.176693 0.296543 0.0  0.185391 0.242316 0.0  0.195313 0.171129 0.0  0.207709 0.0807847 0.0  0.224049 -0.0337084 0.0  0.235103 -0.163723 0.0  0.458766 -0.348063 0.0  0.336189 -0.217554 0.0  0.25661 -0.276536 0.0  0.226483 -0.275042 0.0  0.208929 -0.237149 0.0  0.198727 -0.198021 0.0  0.192652 -0.158184 0.0  0.189652 -0.115209 0.0  0.188498 -0.0695276 0.0  0.188595 -0.0230669 0.0  0.189665 0.0237833 0.0  0.192049 0.0701661 0.0  0.196866 0.116194 0.0  0.193134 0.157141 0.0  0.365944 -0.0187503 0.0  0.228965 0.00409765 0.0
            </DataArray>
            <DataArray type="Float64" Name="Displacement" NumberOfComponents="3" format="ascii">
               2.59649e-05 6.74178e-08 0.0  -2.59649e-05 -6.74178e-08 0.0  5.18334e-05 3.72275e-05 0.0  5.16408e-05 0.000111413 0.0  5.14481e-05 0.000185598 0.0  5.12555e-05 0.000259783 0.0  5.10629e-05 0.000333969 0.0  5.08703e-05 0.000408154 0.0  5.06777e-05 0.000482339 0.0  5.0485e-05 0.000556525 0.0  5.02924e-05 0.00063071 0.0  5.00998e-05 0.000704895 0.0  4.99072e-05 0.00077908 0.0  4.97145e-05 0.000853266 0.0  4.95219e-05 0.000927451 0.0  4.93293e-05 0.00100164 0.0  -5.2026e-05 3.69578e-05 0.0  -5.22186e-05 0.000111143 0.0  -5.24113e-05 0.000185328 0.0  -5.26039e-05 0.000259514 0.0  -5.27965e-05 0.000333699 0.0  -5.29891e-05 0.000407884 0.0  -5.31818e-05 0.00048207 0.0  -5.33744e-05 0.000556255 0.0  -5.3567e-05 0.00063044 0.0  -5.37596e-05 0.000704625 0.0  -5.39522e-05 0.000778811 0.0  -5.41449e-05 0.000852996 0.0  -5.43375e-05 0.000927181 0.0  -5.45301e-05 0.00100137 0.0  2.32681e-05 0.00103866 0.0  -2.86616e-05 0.00103853 0.0
            </DataArray>
         </PointData>
      </Piece>
   </UnstructuredGrid>
</VTKFile>
