<?xml version="1.0"?>
<VTKFile type="UnstructuredGrid" version="0.1" byte_order="LittleEndian">
   <UnstructuredGrid>
      <Piece NumberOfPoints="32" NumberOfCells="0" >
         <Points>
            <DataArray type="Float64" Name="Position" NumberOfComponents="3" format="ascii">
               0  -0.005  0
               0  0.005  0
               0.00714286  -0.01  0
               0.0214286  -0.01  0
               0.0357143  -0.01  0
               0.05  -0.01  0
               0.0642857  -0.01  0
               0.0785714  -0.01  0
               0.0928571  -0.01  0
               0.107143  -0.01  0
               0.121429  -0.01  0
               0.135714  -0.01  0
               0.15  -0.01  0
               0.164286  -0.01  0
               0.178571  -0.01  0
               0.192857  -0.01  0
               0.00714286  0.01  0
               0.0214286  0.01  0
               0.0357143  0.01  0
               0.05  0.01  0
               0.0642857  0.01  0
               0.0785714  0.01  0
               0.0928571  0.01  0
               0.107143  0.01  0
               0.121429  0.01  0
               0.135714  0.01  0
               0.15  0.01  0
               0.164286  0.01  0
               0.178571  0.01  0
               0.192857  0.01  0
               0.2  -0.005  0
               0.2  0.005  0
            </DataArray>
         </Points>

         <Cells>
            <DataArray type="Int32" Name="connectivity" NumberOfComponents="1" format="ascii">

            </DataArray>
            <DataArray type="Int32" Name="offsets" NumberOfComponents="1" format="ascii">

            </DataArray>
            <DataArray type="UInt8"  Name="types" NumberOfComponents="1" format="ascii">

            </DataArray>
         </Cells>
         <PointData Scalars="Rank " Vectors="Force Displacement ">
            <DataArray type="UInt32" Name="Rank" NumberOfComponents="1" format="ascii">
               0 0 0 0 0 0 0 0 0 0 0 0 0 0 0 0 0 0 0 0 0 0 0 0 0 0 0 0 0 0 0 0
            </DataArray>
            <DataArray type="Float64" Name="Force" NumberOfComponents="3" format="ascii">
               2.07341 0.00322638 0.0  2.10326 -0.0415962 0.0  0.450881 -0.0333358 0.0  0.328374 -0.147633 0.0  0.250989 -0.0609433 0.0  0.223491 -0.0444669 0.0  0.207873 -0.0758356 0.0  0.19771 -0.112314 0.0  0.191132 -0.146371 0.0  0.187206 -0.181187 0.0  0.184848 -0.214729 0.0  0.182704 -0.245538 0.0  0.181492 -0.271221 0.0  0.180017 -0.294329 0.0  0.180904 -0.31116 0.0  0.176305 -0.290299 0.0  0.418924 -0.469641 0.0  0.273519 -0.396241 0.0  0.186656 -0.535334 0.0  0.161852 -0.619421 0.0  0.152311 -0.646317 0.0  0.151953 -0.661727 0.0  0.154767 -0.667108 0.0  0.162828 -0.648882 0.0  0.173478 -0.599266 0.0  0.184825 -0.528237 0.0  0.198186 -0.433848 0.0  0.21529 -0.311379 0.0  0.23852 -0.152722 0.0  0.257539 0.0517104 0.0  0.259127 -0.0188245 0.0  0.402066 0.0122891 0.0
            </DataArray>
            <DataArray type="Float64" Name="Displacement" NumberOfComponents="3" format="ascii">
               -1.21426e-05 1.47442e-08 0.0  1.21426e-05 -1.47442e-08 0.0  -2.43062e-05 -1.7317e-05 0.0  -2.43483e-05 -5.20101e-05 0.0  -2.43904e-05 -8.67031e-05 0.0  -2.44326e-05 -0.000121396 0.0  -2.44747e-05 -0.000156089 0.0  -2.45168e-05 -0.000190782 0.0  -2.45589e-05 -0.000225475 0.0  -2.46011e-05 -0.000260168 0.0  -2.46432e-05 -0.000294861 0.0  -2.46853e-05 -0.000329554 0.0  -2.47275e-05 -0.000364247 0.0  -2.47696e-05 -0.00039894 0.0  -2.48117e-05 -0.000433633 0.0  -2.48538e-05 -0.000468327 0.0  2.42641e-05 -1.7376e-05 0.0  2.42219e-05 -5.2069e-05 0.0  2.41798e-05 -8.67621e-05 0.0  2.41377e-05 -0.000121455 0.0  2.40956e-05 -0.000156148 0.0  2.40534e-05 -0.000190841 0.0  2.40113e-05 -0.000225534 0.0  2.39692e-05 -0.000260227 0.0  2.39271e-05 -0.00029492 0.0  2.38849e-05 -0.000329613 0.0  2.38428e-05 -0.000364306 0.0  2.38007e-05 -0.000398999 0.0  2.37585e-05 -0.000433692 0.0  2.37164e-05 -0.000468385 0.0  -1.27323e-05 -0.000485688 0.0  1.15528e-05 -0.000485717 0.0
            </DataArray>
         </PointData>
      </Piece>
   </UnstructuredGrid>
</VTKFile>
