<?xml version="1.0"?>
<VTKFile type="UnstructuredGrid" version="0.1" byte_order="LittleEndian">
   <UnstructuredGrid>
      <Piece NumberOfPoints="32" NumberOfCells="0" >
         <Points>
            <DataArray type="Float64" Name="Position" NumberOfComponents="3" format="ascii">
               0  -0.005  0
               0  0.005  0
               0.00714286  -0.01  0
               0.0214286  -0.01  0
               0.0357143  -0.01  0
               0.05  -0.01  0
               0.0642857  -0.01  0
               0.0785714  -0.01  0
               0.0928571  -0.01  0
               0.107143  -0.01  0
               0.121429  -0.01  0
               0.135714  -0.01  0
               0.15  -0.01  0
               0.164286  -0.01  0
               0.178571  -0.01  0
               0.192857  -0.01  0
               0.00714286  0.01  0
               0.0214286  0.01  0
               0.0357143  0.01  0
               0.05  0.01  0
               0.0642857  0.01  0
               0.0785714  0.01  0
               0.0928571  0.01  0
               0.107143  0.01  0
               0.121429  0.01  0
               0.135714  0.01  0
               0.15  0.01  0
               0.164286  0.01  0
               0.178571  0.01  0
               0.192857  0.01  0
               0.2  -0.005  0
               0.2  0.005  0
            </DataArray>
         </Points>

         <Cells>
            <DataArray type="Int32" Name="connectivity" NumberOfComponents="1" format="ascii">

            </DataArray>
            <DataArray type="Int32" Name="offsets" NumberOfComponents="1" format="ascii">

            </DataArray>
            <DataArray type="UInt8"  Name="types" NumberOfComponents="1" format="ascii">

            </DataArray>
         </Cells>
         <PointData Scalars="Rank " Vectors="Force Displacement ">
            <DataArray type="UInt32" Name="Rank" NumberOfComponents="1" format="ascii">
               0 0 0 0 0 0 0 0 0 0 0 0 0 0 0 0 0 0 0 0 0 0 0 0 0 0 0 0 0 0 0 0
            </DataArray>
            <DataArray type="Float64" Name="Force" NumberOfComponents="3" format="ascii">
               2.11089 0.0131522 0.0  2.07215 -0.0329544 0.0  0.441485 0.383226 0.0  0.308236 0.280706 0.0  0.226555 0.354747 0.0  0.197156 0.382503 0.0  0.184727 0.383795 0.0  0.17898 0.372824 0.0  0.179022 0.351865 0.0  0.181867 0.31804 0.0  0.185884 0.271323 0.0  0.190769 0.212998 0.0  0.197222 0.144441 0.0  0.20595 0.0645347 0.0  0.218152 -0.0300562 0.0  0.224815 -0.132391 0.0  0.443208 -0.0590062 0.0  0.308333 0.0408541 0.0  0.226246 -0.0764184 0.0  0.197247 -0.122462 0.0  0.182497 -0.128577 0.0  0.176897 -0.142308 0.0  0.177952 -0.140584 0.0  0.18008 -0.119273 0.0  0.183018 -0.0856667 0.0  0.186426 -0.0428212 0.0  0.190718 0.0075397 0.0  0.196432 0.0649746 0.0  0.204033 0.130244 0.0  0.204076 0.190005 0.0  0.310356 -0.0217349 0.0  0.303853 0.0162269 0.0
            </DataArray>
            <DataArray type="Float64" Name="Displacement" NumberOfComponents="3" format="ascii">
               -5.59246e-05 3.12766e-07 0.0  5.59246e-05 -3.12766e-07 0.0  -0.000112296 -7.92667e-05 0.0  -0.00011319 -0.000239051 0.0  -0.000114083 -0.000398836 0.0  -0.000114977 -0.00055862 0.0  -0.00011587 -0.000718405 0.0  -0.000116764 -0.000878189 0.0  -0.000117658 -0.00103797 0.0  -0.000118551 -0.00119776 0.0  -0.000119445 -0.00135754 0.0  -0.000120339 -0.00151733 0.0  -0.000121232 -0.00167711 0.0  -0.000122126 -0.0018369 0.0  -0.000123019 -0.00199668 0.0  -0.000123913 -0.00215647 0.0  0.000111402 -8.05178e-05 0.0  0.000110509 -0.000240302 0.0  0.000109615 -0.000400087 0.0  0.000108722 -0.000559871 0.0  0.000107828 -0.000719656 0.0  0.000106934 -0.00087944 0.0  0.000106041 -0.00103922 0.0  0.000105147 -0.00119901 0.0  0.000104253 -0.00135879 0.0  0.00010336 -0.00151858 0.0  0.000102466 -0.00167836 0.0  0.000101573 -0.00183815 0.0  0.000100679 -0.00199793 0.0  9.97853e-05 -0.00215772 0.0  -6.84352e-05 -0.00223667 0.0  4.3414e-05 -0.0022373 0.0
            </DataArray>
         </PointData>
      </Piece>
   </UnstructuredGrid>
</VTKFile>
