<?xml version="1.0"?>
<VTKFile type="UnstructuredGrid" version="0.1" byte_order="LittleEndian">
   <UnstructuredGrid>
      <Piece NumberOfPoints="32" NumberOfCells="0" >
         <Points>
            <DataArray type="Float64" Name="Position" NumberOfComponents="3" format="ascii">
               0  -0.005  0
               0  0.005  0
               0.00714286  -0.01  0
               0.0214286  -0.01  0
               0.0357143  -0.01  0
               0.05  -0.01  0
               0.0642857  -0.01  0
               0.0785714  -0.01  0
               0.0928571  -0.01  0
               0.107143  -0.01  0
               0.121429  -0.01  0
               0.135714  -0.01  0
               0.15  -0.01  0
               0.164286  -0.01  0
               0.178571  -0.01  0
               0.192857  -0.01  0
               0.00714286  0.01  0
               0.0214286  0.01  0
               0.0357143  0.01  0
               0.05  0.01  0
               0.0642857  0.01  0
               0.0785714  0.01  0
               0.0928571  0.01  0
               0.107143  0.01  0
               0.121429  0.01  0
               0.135714  0.01  0
               0.15  0.01  0
               0.164286  0.01  0
               0.178571  0.01  0
               0.192857  0.01  0
               0.2  -0.005  0
               0.2  0.005  0
            </DataArray>
         </Points>

         <Cells>
            <DataArray type="Int32" Name="connectivity" NumberOfComponents="1" format="ascii">

            </DataArray>
            <DataArray type="Int32" Name="offsets" NumberOfComponents="1" format="ascii">

            </DataArray>
            <DataArray type="UInt8"  Name="types" NumberOfComponents="1" format="ascii">

            </DataArray>
         </Cells>
         <PointData Scalars="Rank " Vectors="Force Displacement ">
            <DataArray type="UInt32" Name="Rank" NumberOfComponents="1" format="ascii">
               0 0 0 0 0 0 0 0 0 0 0 0 0 0 0 0 0 0 0 0 0 0 0 0 0 0 0 0 0 0 0 0
            </DataArray>
            <DataArray type="Float64" Name="Force" NumberOfComponents="3" format="ascii">
               2.03442 0.0245897 0.0  2.131 -0.0111162 0.0  0.414718 -0.263503 0.0  0.270513 -0.30113 0.0  0.18364 -0.0909862 0.0  0.161577 0.0306524 0.0  0.153076 0.0724576 0.0  0.152071 0.0969031 0.0  0.1543 0.108515 0.0  0.157637 0.102661 0.0  0.163071 0.0814416 0.0  0.168913 0.0485994 0.0  0.175386 0.00649622 0.0  0.183325 -0.0451577 0.0  0.193122 -0.107502 0.0  0.196242 -0.167696 0.0  0.461694 -0.637531 0.0  0.348549 -0.507506 0.0  0.270145 -0.541859 0.0  0.237969 -0.523697 0.0  0.220237 -0.477529 0.0  0.210552 -0.432872 0.0  0.205943 -0.387065 0.0  0.204751 -0.334573 0.0  0.205671 -0.274243 0.0  0.208083 -0.206562 0.0  0.212208 -0.131385 0.0  0.218161 -0.0467729 0.0  0.22865 0.0490362 0.0  0.232441 0.151291 0.0  0.28697 -0.00880526 0.0  0.308151 0.0293441 0.0
            </DataArray>
            <DataArray type="Float64" Name="Displacement" NumberOfComponents="3" format="ascii">
               8.47884e-05 7.1896e-07 0.0  -8.47884e-05 -7.1896e-07 0.0  0.00016855 0.000122564 0.0  0.000166496 0.000364817 0.0  0.000164441 0.00060707 0.0  0.000162387 0.000849322 0.0  0.000160333 0.00109158 0.0  0.000158279 0.00133383 0.0  0.000156225 0.00157608 0.0  0.000154171 0.00181833 0.0  0.000152116 0.00206059 0.0  0.000150062 0.00230284 0.0  0.000148008 0.00254509 0.0  0.000145954 0.00278734 0.0  0.0001439 0.0030296 0.0  0.000141846 0.00327185 0.0  -0.000170604 0.000119688 0.0  -0.000172658 0.000361941 0.0  -0.000174712 0.000604194 0.0  -0.000176766 0.000846447 0.0  -0.000178821 0.0010887 0.0  -0.000180875 0.00133095 0.0  -0.000182929 0.0015732 0.0  -0.000184983 0.00181546 0.0  -0.000187037 0.00205771 0.0  -0.000189092 0.00229996 0.0  -0.000191146 0.00254222 0.0  -0.0001932 0.00278447 0.0  -0.000195254 0.00302672 0.0  -0.000197308 0.00326897 0.0  5.60301e-05 0.00339226 0.0  -0.000113547 0.00339082 0.0
            </DataArray>
         </PointData>
      </Piece>
   </UnstructuredGrid>
</VTKFile>
