<?xml version="1.0"?>
<VTKFile type="UnstructuredGrid" version="0.1" byte_order="LittleEndian">
   <UnstructuredGrid>
      <Piece NumberOfPoints="32" NumberOfCells="0" >
         <Points>
            <DataArray type="Float64" Name="Position" NumberOfComponents="3" format="ascii">
               0  -0.005  0
               0  0.005  0
               0.00714286  -0.01  0
               0.0214286  -0.01  0
               0.0357143  -0.01  0
               0.05  -0.01  0
               0.0642857  -0.01  0
               0.0785714  -0.01  0
               0.0928571  -0.01  0
               0.107143  -0.01  0
               0.121429  -0.01  0
               0.135714  -0.01  0
               0.15  -0.01  0
               0.164286  -0.01  0
               0.178571  -0.01  0
               0.192857  -0.01  0
               0.00714286  0.01  0
               0.0214286  0.01  0
               0.0357143  0.01  0
               0.05  0.01  0
               0.0642857  0.01  0
               0.0785714  0.01  0
               0.0928571  0.01  0
               0.107143  0.01  0
               0.121429  0.01  0
               0.135714  0.01  0
               0.15  0.01  0
               0.164286  0.01  0
               0.178571  0.01  0
               0.192857  0.01  0
               0.2  -0.005  0
               0.2  0.005  0
            </DataArray>
         </Points>

         <Cells>
            <DataArray type="Int32" Name="connectivity" NumberOfComponents="1" format="ascii">

            </DataArray>
            <DataArray type="Int32" Name="offsets" NumberOfComponents="1" format="ascii">

            </DataArray>
            <DataArray type="UInt8"  Name="types" NumberOfComponents="1" format="ascii">

            </DataArray>
         </Cells>
         <PointData Scalars="Rank " Vectors="Force Displacement ">
            <DataArray type="UInt32" Name="Rank" NumberOfComponents="1" format="ascii">
               0 0 0 0 0 0 0 0 0 0 0 0 0 0 0 0 0 0 0 0 0 0 0 0 0 0 0 0 0 0 0 0
            </DataArray>
            <DataArray type="Float64" Name="Force" NumberOfComponents="3" format="ascii">
               2.03158 0.019548 0.0  2.06198 -0.0268744 0.0  0.431237 -0.00166884 0.0  0.293059 -0.085622 0.0  0.210043 0.0547131 0.0  0.188104 0.125481 0.0  0.175553 0.126377 0.0  0.170514 0.130105 0.0  0.171264 0.127021 0.0  0.174007 0.106343 0.0  0.177606 0.0721489 0.0  0.181739 0.0280626 0.0  0.186965 -0.0243336 0.0  0.19393 -0.084895 0.0  0.203323 -0.154759 0.0  0.206437 -0.222456 0.0  0.44782 -0.323898 0.0  0.316064 -0.209808 0.0  0.233217 -0.284234 0.0  0.204986 -0.308543 0.0  0.191017 -0.297381 0.0  0.184382 -0.279987 0.0  0.183233 -0.255671 0.0  0.185104 -0.220514 0.0  0.188242 -0.173474 0.0  0.192431 -0.116916 0.0  0.197999 -0.0513161 0.0  0.205687 0.0241345 0.0  0.216381 0.111645 0.0  0.221628 0.201488 0.0  0.332336 -0.0155843 0.0  0.346151 0.0216142 0.0
            </DataArray>
            <DataArray type="Float64" Name="Displacement" NumberOfComponents="3" format="ascii">
               1.41438e-05 2.00048e-08 0.0  -1.41438e-05 -2.00048e-08 0.0  2.82591e-05 2.02455e-05 0.0  2.82019e-05 6.06564e-05 0.0  2.81448e-05 0.000101067 0.0  2.80876e-05 0.000141478 0.0  2.80304e-05 0.000181889 0.0  2.79733e-05 0.0002223 0.0  2.79161e-05 0.000262711 0.0  2.7859e-05 0.000303122 0.0  2.78018e-05 0.000343533 0.0  2.77447e-05 0.000383944 0.0  2.76875e-05 0.000424355 0.0  2.76303e-05 0.000464766 0.0  2.75732e-05 0.000505177 0.0  2.7516e-05 0.000545588 0.0  -2.83162e-05 2.01655e-05 0.0  -2.83734e-05 6.05764e-05 0.0  -2.84305e-05 0.000100987 0.0  -2.84877e-05 0.000141398 0.0  -2.85449e-05 0.000181809 0.0  -2.8602e-05 0.00022222 0.0  -2.86592e-05 0.000262631 0.0  -2.87163e-05 0.000303042 0.0  -2.87735e-05 0.000343453 0.0  -2.88306e-05 0.000383864 0.0  -2.88878e-05 0.000424275 0.0  -2.8945e-05 0.000464686 0.0  -2.90021e-05 0.000505097 0.0  -2.90593e-05 0.000545508 0.0  1.33436e-05 0.000565773 0.0  -1.4944e-05 0.000565733 0.0
            </DataArray>
         </PointData>
      </Piece>
   </UnstructuredGrid>
</VTKFile>
