<?xml version="1.0"?>
<VTKFile type="UnstructuredGrid" version="0.1" byte_order="LittleEndian">
   <UnstructuredGrid>
      <Piece NumberOfPoints="32" NumberOfCells="0" >
         <Points>
            <DataArray type="Float64" Name="Position" NumberOfComponents="3" format="ascii">
               0  -0.005  0
               0  0.005  0
               0.00714286  -0.01  0
               0.0214286  -0.01  0
               0.0357143  -0.01  0
               0.05  -0.01  0
               0.0642857  -0.01  0
               0.0785714  -0.01  0
               0.0928571  -0.01  0
               0.107143  -0.01  0
               0.121429  -0.01  0
               0.135714  -0.01  0
               0.15  -0.01  0
               0.164286  -0.01  0
               0.178571  -0.01  0
               0.192857  -0.01  0
               0.00714286  0.01  0
               0.0214286  0.01  0
               0.0357143  0.01  0
               0.05  0.01  0
               0.0642857  0.01  0
               0.0785714  0.01  0
               0.0928571  0.01  0
               0.107143  0.01  0
               0.121429  0.01  0
               0.135714  0.01  0
               0.15  0.01  0
               0.164286  0.01  0
               0.178571  0.01  0
               0.192857  0.01  0
               0.2  -0.005  0
               0.2  0.005  0
            </DataArray>
         </Points>

         <Cells>
            <DataArray type="Int32" Name="connectivity" NumberOfComponents="1" format="ascii">

            </DataArray>
            <DataArray type="Int32" Name="offsets" NumberOfComponents="1" format="ascii">

            </DataArray>
            <DataArray type="UInt8"  Name="types" NumberOfComponents="1" format="ascii">

            </DataArray>
         </Cells>
         <PointData Scalars="Rank " Vectors="Force Displacement ">
            <DataArray type="UInt32" Name="Rank" NumberOfComponents="1" format="ascii">
               0 0 0 0 0 0 0 0 0 0 0 0 0 0 0 0 0 0 0 0 0 0 0 0 0 0 0 0 0 0 0 0
            </DataArray>
            <DataArray type="Float64" Name="Force" NumberOfComponents="3" format="ascii">
               2.041 0.0249052 0.0  2.12705 -0.0131756 0.0  0.414887 -0.207882 0.0  0.27037 -0.249888 0.0  0.184106 -0.0486338 0.0  0.162104 0.0672294 0.0  0.153408 0.105648 0.0  0.152326 0.127456 0.0  0.154511 0.136721 0.0  0.158379 0.128698 0.0  0.163611 0.105342 0.0  0.169523 0.0701981 0.0  0.176275 0.0252438 0.0  0.184616 -0.029564 0.0  0.194988 -0.0957313 0.0  0.198962 -0.161115 0.0  0.460692 -0.59132 0.0  0.345891 -0.46218 0.0  0.267527 -0.501378 0.0  0.23607 -0.487324 0.0  0.218608 -0.443906 0.0  0.209115 -0.401327 0.0  0.204577 -0.35722 0.0  0.203349 -0.306462 0.0  0.204151 -0.248004 0.0  0.206367 -0.182499 0.0  0.210172 -0.109949 0.0  0.215874 -0.0288509 0.0  0.225839 0.0626361 0.0  0.228946 0.158824 0.0  0.2898 -0.00954893 0.0  0.307441 0.0284865 0.0
            </DataArray>
            <DataArray type="Float64" Name="Displacement" NumberOfComponents="3" format="ascii">
               7.41746e-05 5.50217e-07 0.0  -7.41746e-05 -5.50217e-07 0.0  0.000147563 0.000107064 0.0  0.000145991 0.000318992 0.0  0.000144419 0.000530919 0.0  0.000142847 0.000742846 0.0  0.000141275 0.000954774 0.0  0.000139703 0.0011667 0.0  0.000138131 0.00137863 0.0  0.000136559 0.00159056 0.0  0.000134987 0.00180248 0.0  0.000133415 0.00201441 0.0  0.000131843 0.00222634 0.0  0.000130271 0.00243827 0.0  0.000128699 0.00265019 0.0  0.000127127 0.00286212 0.0  -0.000149135 0.000104863 0.0  -0.000150707 0.000316791 0.0  -0.000152279 0.000528718 0.0  -0.000153851 0.000740645 0.0  -0.000155423 0.000952573 0.0  -0.000156995 0.0011645 0.0  -0.000158567 0.00137643 0.0  -0.00016014 0.00158835 0.0  -0.000161712 0.00180028 0.0  -0.000163284 0.00201221 0.0  -0.000164856 0.00222414 0.0  -0.000166428 0.00243606 0.0  -0.000168 0.00264799 0.0  -0.000169572 0.00285992 0.0  5.21659e-05 0.00296753 0.0  -9.61833e-05 0.00296643 0.0
            </DataArray>
         </PointData>
      </Piece>
   </UnstructuredGrid>
</VTKFile>
