<?xml version="1.0"?>
<VTKFile type="UnstructuredGrid" version="0.1" byte_order="LittleEndian">
   <UnstructuredGrid>
      <Piece NumberOfPoints="32" NumberOfCells="0" >
         <Points>
            <DataArray type="Float64" Name="Position" NumberOfComponents="3" format="ascii">
               0  -0.005  0
               0  0.005  0
               0.00714286  -0.01  0
               0.0214286  -0.01  0
               0.0357143  -0.01  0
               0.05  -0.01  0
               0.0642857  -0.01  0
               0.0785714  -0.01  0
               0.0928571  -0.01  0
               0.107143  -0.01  0
               0.121429  -0.01  0
               0.135714  -0.01  0
               0.15  -0.01  0
               0.164286  -0.01  0
               0.178571  -0.01  0
               0.192857  -0.01  0
               0.00714286  0.01  0
               0.0214286  0.01  0
               0.0357143  0.01  0
               0.05  0.01  0
               0.0642857  0.01  0
               0.0785714  0.01  0
               0.0928571  0.01  0
               0.107143  0.01  0
               0.121429  0.01  0
               0.135714  0.01  0
               0.15  0.01  0
               0.164286  0.01  0
               0.178571  0.01  0
               0.192857  0.01  0
               0.2  -0.005  0
               0.2  0.005  0
            </DataArray>
         </Points>

         <Cells>
            <DataArray type="Int32" Name="connectivity" NumberOfComponents="1" format="ascii">

            </DataArray>
            <DataArray type="Int32" Name="offsets" NumberOfComponents="1" format="ascii">

            </DataArray>
            <DataArray type="UInt8"  Name="types" NumberOfComponents="1" format="ascii">

            </DataArray>
         </Cells>
         <PointData Scalars="Rank " Vectors="Force Displacement ">
            <DataArray type="UInt32" Name="Rank" NumberOfComponents="1" format="ascii">
               0 0 0 0 0 0 0 0 0 0 0 0 0 0 0 0 0 0 0 0 0 0 0 0 0 0 0 0 0 0 0 0
            </DataArray>
            <DataArray type="Float64" Name="Force" NumberOfComponents="3" format="ascii">
               2.03955 0.0196408 0.0  2.06383 -0.027401 0.0  0.432345 0.0380969 0.0  0.294388 -0.0488935 0.0  0.211597 0.0858557 0.0  0.189536 0.152689 0.0  0.176352 0.15298 0.0  0.172173 0.15562 0.0  0.172446 0.148817 0.0  0.175061 0.126105 0.0  0.178694 0.0903489 0.0  0.183023 0.045071 0.0  0.188745 -0.00806278 0.0  0.196532 -0.0689665 0.0  0.207201 -0.139099 0.0  0.211704 -0.207819 0.0  0.446792 -0.304782 0.0  0.314201 -0.191713 0.0  0.23092 -0.266979 0.0  0.202289 -0.295061 0.0  0.189268 -0.28886 0.0  0.183001 -0.274363 0.0  0.18219 -0.251939 0.0  0.184108 -0.217583 0.0  0.187284 -0.171148 0.0  0.191536 -0.115544 0.0  0.197407 -0.0516955 0.0  0.205647 0.0211066 0.0  0.217163 0.105209 0.0  0.22313 0.191185 0.0  0.330969 -0.0165951 0.0  0.341643 0.020726 0.0
            </DataArray>
            <DataArray type="Float64" Name="Displacement" NumberOfComponents="3" format="ascii">
               8.59168e-06 7.38171e-09 0.0  -8.59168e-06 -7.38171e-09 0.0  1.71728e-05 1.22886e-05 0.0  1.71517e-05 3.68363e-05 0.0  1.71306e-05 6.13839e-05 0.0  1.71095e-05 8.59316e-05 0.0  1.70885e-05 0.000110479 0.0  1.70674e-05 0.000135027 0.0  1.70463e-05 0.000159575 0.0  1.70252e-05 0.000184122 0.0  1.70041e-05 0.00020867 0.0  1.6983e-05 0.000233218 0.0  1.69619e-05 0.000257765 0.0  1.69408e-05 0.000282313 0.0  1.69197e-05 0.000306861 0.0  1.68986e-05 0.000331408 0.0  -1.71939e-05 1.22591e-05 0.0  -1.7215e-05 3.68067e-05 0.0  -1.72361e-05 6.13544e-05 0.0  -1.72572e-05 8.59021e-05 0.0  -1.72783e-05 0.00011045 0.0  -1.72994e-05 0.000134997 0.0  -1.73205e-05 0.000159545 0.0  -1.73415e-05 0.000184093 0.0  -1.73626e-05 0.00020864 0.0  -1.73837e-05 0.000233188 0.0  -1.74048e-05 0.000257736 0.0  -1.74259e-05 0.000282283 0.0  -1.7447e-05 0.000306831 0.0  -1.74681e-05 0.000331379 0.0  8.29641e-06 0.000343675 0.0  -8.88695e-06 0.00034366 0.0
            </DataArray>
         </PointData>
      </Piece>
   </UnstructuredGrid>
</VTKFile>
