<?xml version="1.0"?>
<VTKFile type="UnstructuredGrid" version="0.1" byte_order="LittleEndian">
   <UnstructuredGrid>
      <Piece NumberOfPoints="32" NumberOfCells="0" >
         <Points>
            <DataArray type="Float64" Name="Position" NumberOfComponents="3" format="ascii">
               0  -0.005  0
               0  0.005  0
               0.00714286  -0.01  0
               0.0214286  -0.01  0
               0.0357143  -0.01  0
               0.05  -0.01  0
               0.0642857  -0.01  0
               0.0785714  -0.01  0
               0.0928571  -0.01  0
               0.107143  -0.01  0
               0.121429  -0.01  0
               0.135714  -0.01  0
               0.15  -0.01  0
               0.164286  -0.01  0
               0.178571  -0.01  0
               0.192857  -0.01  0
               0.00714286  0.01  0
               0.0214286  0.01  0
               0.0357143  0.01  0
               0.05  0.01  0
               0.0642857  0.01  0
               0.0785714  0.01  0
               0.0928571  0.01  0
               0.107143  0.01  0
               0.121429  0.01  0
               0.135714  0.01  0
               0.15  0.01  0
               0.164286  0.01  0
               0.178571  0.01  0
               0.192857  0.01  0
               0.2  -0.005  0
               0.2  0.005  0
            </DataArray>
         </Points>

         <Cells>
            <DataArray type="Int32" Name="connectivity" NumberOfComponents="1" format="ascii">

            </DataArray>
            <DataArray type="Int32" Name="offsets" NumberOfComponents="1" format="ascii">

            </DataArray>
            <DataArray type="UInt8"  Name="types" NumberOfComponents="1" format="ascii">

            </DataArray>
         </Cells>
         <PointData Scalars="Rank " Vectors="Force Displacement ">
            <DataArray type="UInt32" Name="Rank" NumberOfComponents="1" format="ascii">
               0 0 0 0 0 0 0 0 0 0 0 0 0 0 0 0 0 0 0 0 0 0 0 0 0 0 0 0 0 0 0 0
            </DataArray>
            <DataArray type="Float64" Name="Force" NumberOfComponents="3" format="ascii">
               2.07896 0.019877 0.0  2.10226 -0.0274266 0.0  0.431585 0.0962596 0.0  0.293292 0.0115649 0.0  0.210254 0.15053 0.0  0.188242 0.221997 0.0  0.17581 0.22642 0.0  0.17155 0.230946 0.0  0.171839 0.225965 0.0  0.174758 0.204295 0.0  0.178624 0.168587 0.0  0.183021 0.121961 0.0  0.188535 0.0656173 0.0  0.195791 -0.000809215 0.0  0.205414 -0.0791885 0.0  0.209348 -0.158876 0.0  0.449168 -0.34911 0.0  0.317311 -0.232894 0.0  0.234538 -0.308566 0.0  0.20661 -0.331874 0.0  0.192585 -0.318529 0.0  0.18587 -0.299218 0.0  0.184488 -0.27339 0.0  0.186031 -0.237311 0.0  0.18889 -0.190702 0.0  0.192789 -0.135788 0.0  0.198121 -0.0733836 0.0  0.205416 -0.00277506 0.0  0.215578 0.0779351 0.0  0.219231 0.158854 0.0  0.304258 -0.0162241 0.0  0.303926 0.0219319 0.0
            </DataArray>
            <DataArray type="Float64" Name="Displacement" NumberOfComponents="3" format="ascii">
               7.30382e-06 5.33459e-09 0.0  -7.30382e-06 -5.33459e-09 0.0  1.46e-05 1.04447e-05 0.0  1.45848e-05 3.13128e-05 0.0  1.45695e-05 5.21808e-05 0.0  1.45543e-05 7.30489e-05 0.0  1.45391e-05 9.3917e-05 0.0  1.45238e-05 0.000114785 0.0  1.45086e-05 0.000135653 0.0  1.44933e-05 0.000156521 0.0  1.44781e-05 0.000177389 0.0  1.44629e-05 0.000198257 0.0  1.44476e-05 0.000219125 0.0  1.44324e-05 0.000239993 0.0  1.44171e-05 0.000260862 0.0  1.44019e-05 0.00028173 0.0  -1.46153e-05 1.04234e-05 0.0  -1.46305e-05 3.12914e-05 0.0  -1.46458e-05 5.21595e-05 0.0  -1.4661e-05 7.30276e-05 0.0  -1.46762e-05 9.38956e-05 0.0  -1.46915e-05 0.000114764 0.0  -1.47067e-05 0.000135632 0.0  -1.4722e-05 0.0001565 0.0  -1.47372e-05 0.000177368 0.0  -1.47524e-05 0.000198236 0.0  -1.47677e-05 0.000219104 0.0  -1.47829e-05 0.000239972 0.0  -1.47982e-05 0.00026084 0.0  -1.48134e-05 0.000281708 0.0  7.09044e-06 0.000292158 0.0  -7.51721e-06 0.000292148 0.0
            </DataArray>
         </PointData>
      </Piece>
   </UnstructuredGrid>
</VTKFile>
