<?xml version="1.0"?>
<VTKFile type="UnstructuredGrid" version="0.1" byte_order="LittleEndian">
   <UnstructuredGrid>
      <Piece NumberOfPoints="32" NumberOfCells="0" >
         <Points>
            <DataArray type="Float64" Name="Position" NumberOfComponents="3" format="ascii">
               0  -0.005  0
               0  0.005  0
               0.00714286  -0.01  0
               0.0214286  -0.01  0
               0.0357143  -0.01  0
               0.05  -0.01  0
               0.0642857  -0.01  0
               0.0785714  -0.01  0
               0.0928571  -0.01  0
               0.107143  -0.01  0
               0.121429  -0.01  0
               0.135714  -0.01  0
               0.15  -0.01  0
               0.164286  -0.01  0
               0.178571  -0.01  0
               0.192857  -0.01  0
               0.00714286  0.01  0
               0.0214286  0.01  0
               0.0357143  0.01  0
               0.05  0.01  0
               0.0642857  0.01  0
               0.0785714  0.01  0
               0.0928571  0.01  0
               0.107143  0.01  0
               0.121429  0.01  0
               0.135714  0.01  0
               0.15  0.01  0
               0.164286  0.01  0
               0.178571  0.01  0
               0.192857  0.01  0
               0.2  -0.005  0
               0.2  0.005  0
            </DataArray>
         </Points>

         <Cells>
            <DataArray type="Int32" Name="connectivity" NumberOfComponents="1" format="ascii">

            </DataArray>
            <DataArray type="Int32" Name="offsets" NumberOfComponents="1" format="ascii">

            </DataArray>
            <DataArray type="UInt8"  Name="types" NumberOfComponents="1" format="ascii">

            </DataArray>
         </Cells>
         <PointData Scalars="Rank " Vectors="Force Displacement ">
            <DataArray type="UInt32" Name="Rank" NumberOfComponents="1" format="ascii">
               0 0 0 0 0 0 0 0 0 0 0 0 0 0 0 0 0 0 0 0 0 0 0 0 0 0 0 0 0 0 0 0
            </DataArray>
            <DataArray type="Float64" Name="Force" NumberOfComponents="3" format="ascii">
               0 0 0.0  0 0 0.0  0 0 0.0  0 0 0.0  0 0 0.0  0 0 0.0  0 0 0.0  0 0 0.0  0 0 0.0  0 0 0.0  0 0 0.0  0 0 0.0  0 0 0.0  0 0 0.0  0 0 0.0  0 0 0.0  0 0 0.0  0 0 0.0  0 0 0.0  0 0 0.0  0 0 0.0  0 0 0.0  0 0 0.0  0 0 0.0  0 0 0.0  0 0 0.0  0 0 0.0  0 0 0.0  0 0 0.0  0 0 0.0  0 0 0.0  0 0 0.0
            </DataArray>
            <DataArray type="Float64" Name="Displacement" NumberOfComponents="3" format="ascii">
               -1.78719e-06 0 0.0  1.78719e-06 0 0.0  -3.57484e-06 -2.55249e-06 0.0  -3.57575e-06 -7.65875e-06 0.0  -3.57666e-06 -1.2765e-05 0.0  -3.57758e-06 -1.78713e-05 0.0  -3.57849e-06 -2.29775e-05 0.0  -3.5794e-06 -2.80838e-05 0.0  -3.58032e-06 -3.31901e-05 0.0  -3.58123e-06 -3.82963e-05 0.0  -3.58214e-06 -4.34026e-05 0.0  -3.58305e-06 -4.85088e-05 0.0  -3.58397e-06 -5.36151e-05 0.0  -3.58488e-06 -5.87214e-05 0.0  -3.58579e-06 -6.38276e-05 0.0  -3.5867e-06 -6.89339e-05 0.0  3.57393e-06 -2.55377e-06 0.0  3.57301e-06 -7.66003e-06 0.0  3.5721e-06 -1.27663e-05 0.0  3.57119e-06 -1.78726e-05 0.0  3.57028e-06 -2.29788e-05 0.0  3.56936e-06 -2.80851e-05 0.0  3.56845e-06 -3.31913e-05 0.0  3.56754e-06 -3.82976e-05 0.0  3.56663e-06 -4.34039e-05 0.0  3.56571e-06 -4.85101e-05 0.0  3.5648e-06 -5.36164e-05 0.0  3.56389e-06 -5.87226e-05 0.0  3.56298e-06 -6.38289e-05 0.0  3.56206e-06 -6.89352e-05 0.0  -1.79997e-06 -7.14873e-05 0.0  1.77442e-06 -7.1488e-05 0.0
            </DataArray>
         </PointData>
      </Piece>
   </UnstructuredGrid>
</VTKFile>
