<?xml version="1.0"?>
<VTKFile type="UnstructuredGrid" version="0.1" byte_order="LittleEndian">
   <UnstructuredGrid>
      <Piece NumberOfPoints="32" NumberOfCells="0" >
         <Points>
            <DataArray type="Float64" Name="Position" NumberOfComponents="3" format="ascii">
               0  -0.005  0
               0  0.005  0
               0.00714286  -0.01  0
               0.0214286  -0.01  0
               0.0357143  -0.01  0
               0.05  -0.01  0
               0.0642857  -0.01  0
               0.0785714  -0.01  0
               0.0928571  -0.01  0
               0.107143  -0.01  0
               0.121429  -0.01  0
               0.135714  -0.01  0
               0.15  -0.01  0
               0.164286  -0.01  0
               0.178571  -0.01  0
               0.192857  -0.01  0
               0.00714286  0.01  0
               0.0214286  0.01  0
               0.0357143  0.01  0
               0.05  0.01  0
               0.0642857  0.01  0
               0.0785714  0.01  0
               0.0928571  0.01  0
               0.107143  0.01  0
               0.121429  0.01  0
               0.135714  0.01  0
               0.15  0.01  0
               0.164286  0.01  0
               0.178571  0.01  0
               0.192857  0.01  0
               0.2  -0.005  0
               0.2  0.005  0
            </DataArray>
         </Points>

         <Cells>
            <DataArray type="Int32" Name="connectivity" NumberOfComponents="1" format="ascii">

            </DataArray>
            <DataArray type="Int32" Name="offsets" NumberOfComponents="1" format="ascii">

            </DataArray>
            <DataArray type="UInt8"  Name="types" NumberOfComponents="1" format="ascii">

            </DataArray>
         </Cells>
         <PointData Scalars="Rank " Vectors="Force Displacement ">
            <DataArray type="UInt32" Name="Rank" NumberOfComponents="1" format="ascii">
               0 0 0 0 0 0 0 0 0 0 0 0 0 0 0 0 0 0 0 0 0 0 0 0 0 0 0 0 0 0 0 0
            </DataArray>
            <DataArray type="Float64" Name="Force" NumberOfComponents="3" format="ascii">
               2.07481 0.0218939 0.0  2.10618 -0.0246629 0.0  0.427948 0.0651686 0.0  0.289035 -0.0112125 0.0  0.205307 0.141768 0.0  0.183699 0.226847 0.0  0.171854 0.245306 0.0  0.169153 0.252972 0.0  0.169927 0.250417 0.0  0.173102 0.231369 0.0  0.177331 0.197168 0.0  0.182098 0.150442 0.0  0.187979 0.0920793 0.0  0.195674 0.0214704 0.0  0.205942 -0.0634983 0.0  0.210701 -0.152916 0.0  0.451243 -0.374658 0.0  0.321526 -0.255157 0.0  0.240461 -0.326847 0.0  0.212186 -0.338171 0.0  0.196564 -0.312861 0.0  0.189075 -0.285226 0.0  0.186765 -0.2535 0.0  0.187774 -0.213864 0.0  0.190115 -0.165781 0.0  0.193663 -0.111266 0.0  0.198703 -0.0511703 0.0  0.205625 0.0150671 0.0  0.215806 0.0886378 0.0  0.218287 0.160537 0.0  0.310206 -0.0154885 0.0  0.282627 0.021583 0.0
            </DataArray>
            <DataArray type="Float64" Name="Displacement" NumberOfComponents="3" format="ascii">
               1.82147e-05 3.31777e-08 0.0  -1.82147e-05 -3.31777e-08 0.0  3.6382e-05 2.60874e-05 0.0  3.62872e-05 7.81294e-05 0.0  3.61925e-05 0.000130171 0.0  3.60977e-05 0.000182214 0.0  3.60029e-05 0.000234256 0.0  3.59081e-05 0.000286298 0.0  3.58133e-05 0.00033834 0.0  3.57185e-05 0.000390382 0.0  3.56237e-05 0.000442424 0.0  3.55289e-05 0.000494466 0.0  3.54341e-05 0.000546508 0.0  3.53393e-05 0.00059855 0.0  3.52445e-05 0.000650592 0.0  3.51497e-05 0.000702634 0.0  -3.64768e-05 2.59547e-05 0.0  -3.65716e-05 7.79967e-05 0.0  -3.66664e-05 0.000130039 0.0  -3.67612e-05 0.000182081 0.0  -3.6856e-05 0.000234123 0.0  -3.69508e-05 0.000286165 0.0  -3.70456e-05 0.000338207 0.0  -3.71404e-05 0.000390249 0.0  -3.72352e-05 0.000442291 0.0  -3.733e-05 0.000494333 0.0  -3.74248e-05 0.000546375 0.0  -3.75196e-05 0.000598417 0.0  -3.76144e-05 0.000650459 0.0  -3.77091e-05 0.000702501 0.0  1.68876e-05 0.000728622 0.0  -1.95418e-05 0.000728556 0.0
            </DataArray>
         </PointData>
      </Piece>
   </UnstructuredGrid>
</VTKFile>
