<?xml version="1.0"?>
<VTKFile type="UnstructuredGrid" version="0.1" byte_order="LittleEndian">
   <UnstructuredGrid>
      <Piece NumberOfPoints="32" NumberOfCells="0" >
         <Points>
            <DataArray type="Float64" Name="Position" NumberOfComponents="3" format="ascii">
               0  -0.005  0
               0  0.005  0
               0.00714286  -0.01  0
               0.0214286  -0.01  0
               0.0357143  -0.01  0
               0.05  -0.01  0
               0.0642857  -0.01  0
               0.0785714  -0.01  0
               0.0928571  -0.01  0
               0.107143  -0.01  0
               0.121429  -0.01  0
               0.135714  -0.01  0
               0.15  -0.01  0
               0.164286  -0.01  0
               0.178571  -0.01  0
               0.192857  -0.01  0
               0.00714286  0.01  0
               0.0214286  0.01  0
               0.0357143  0.01  0
               0.05  0.01  0
               0.0642857  0.01  0
               0.0785714  0.01  0
               0.0928571  0.01  0
               0.107143  0.01  0
               0.121429  0.01  0
               0.135714  0.01  0
               0.15  0.01  0
               0.164286  0.01  0
               0.178571  0.01  0
               0.192857  0.01  0
               0.2  -0.005  0
               0.2  0.005  0
            </DataArray>
         </Points>

         <Cells>
            <DataArray type="Int32" Name="connectivity" NumberOfComponents="1" format="ascii">

            </DataArray>
            <DataArray type="Int32" Name="offsets" NumberOfComponents="1" format="ascii">

            </DataArray>
            <DataArray type="UInt8"  Name="types" NumberOfComponents="1" format="ascii">

            </DataArray>
         </Cells>
         <PointData Scalars="Rank " Vectors="Force Displacement ">
            <DataArray type="UInt32" Name="Rank" NumberOfComponents="1" format="ascii">
               0 0 0 0 0 0 0 0 0 0 0 0 0 0 0 0 0 0 0 0 0 0 0 0 0 0 0 0 0 0 0 0
            </DataArray>
            <DataArray type="Float64" Name="Force" NumberOfComponents="3" format="ascii">
               2.07792 0.0225762 0.0  2.10213 -0.0249837 0.0  0.426384 0.103877 0.0  0.28369 0.0268487 0.0  0.199283 0.171561 0.0  0.17695 0.246808 0.0  0.165093 0.259797 0.0  0.162703 0.264074 0.0  0.164206 0.258776 0.0  0.16805 0.237515 0.0  0.172888 0.201369 0.0  0.178578 0.153812 0.0  0.185604 0.095952 0.0  0.194633 0.0271741 0.0  0.206441 -0.0552754 0.0  0.212574 -0.141775 0.0  0.453565 -0.337364 0.0  0.32559 -0.214972 0.0  0.245061 -0.289104 0.0  0.217241 -0.307207 0.0  0.202635 -0.288759 0.0  0.195337 -0.265087 0.0  0.192555 -0.235875 0.0  0.192507 -0.197447 0.0  0.193881 -0.15044 0.0  0.196279 -0.0963989 0.0  0.199979 -0.0358262 0.0  0.205397 0.0318358 0.0  0.213383 0.107934 0.0  0.214832 0.181437 0.0  0.306056 -0.0157799 0.0  0.307549 0.0224619 0.0
            </DataArray>
            <DataArray type="Float64" Name="Displacement" NumberOfComponents="3" format="ascii">
               9.98444e-06 9.96891e-09 0.0  -9.98444e-06 -9.96891e-09 0.0  1.99546e-05 1.42834e-05 0.0  1.99262e-05 4.28104e-05 0.0  1.98977e-05 7.13374e-05 0.0  1.98692e-05 9.98643e-05 0.0  1.98407e-05 0.000128391 0.0  1.98122e-05 0.000156918 0.0  1.97837e-05 0.000185445 0.0  1.97553e-05 0.000213972 0.0  1.97268e-05 0.000242499 0.0  1.96983e-05 0.000271026 0.0  1.96698e-05 0.000299553 0.0  1.96413e-05 0.00032808 0.0  1.96128e-05 0.000356607 0.0  1.95844e-05 0.000385134 0.0  -1.99831e-05 1.42435e-05 0.0  -2.00116e-05 4.27705e-05 0.0  -2.00401e-05 7.12975e-05 0.0  -2.00686e-05 9.98245e-05 0.0  -2.0097e-05 0.000128351 0.0  -2.01255e-05 0.000156878 0.0  -2.0154e-05 0.000185405 0.0  -2.01825e-05 0.000213932 0.0  -2.0211e-05 0.000242459 0.0  -2.02395e-05 0.000270986 0.0  -2.02679e-05 0.000299513 0.0  -2.02964e-05 0.00032804 0.0  -2.03249e-05 0.000356567 0.0  -2.03534e-05 0.000385094 0.0  9.58568e-06 0.000399388 0.0  -1.03832e-05 0.000399368 0.0
            </DataArray>
         </PointData>
      </Piece>
   </UnstructuredGrid>
</VTKFile>
