<?xml version="1.0"?>
<VTKFile type="UnstructuredGrid" version="0.1" byte_order="LittleEndian">
   <UnstructuredGrid>
      <Piece NumberOfPoints="32" NumberOfCells="0" >
         <Points>
            <DataArray type="Float64" Name="Position" NumberOfComponents="3" format="ascii">
               0  -0.005  0
               0  0.005  0
               0.00714286  -0.01  0
               0.0214286  -0.01  0
               0.0357143  -0.01  0
               0.05  -0.01  0
               0.0642857  -0.01  0
               0.0785714  -0.01  0
               0.0928571  -0.01  0
               0.107143  -0.01  0
               0.121429  -0.01  0
               0.135714  -0.01  0
               0.15  -0.01  0
               0.164286  -0.01  0
               0.178571  -0.01  0
               0.192857  -0.01  0
               0.00714286  0.01  0
               0.0214286  0.01  0
               0.0357143  0.01  0
               0.05  0.01  0
               0.0642857  0.01  0
               0.0785714  0.01  0
               0.0928571  0.01  0
               0.107143  0.01  0
               0.121429  0.01  0
               0.135714  0.01  0
               0.15  0.01  0
               0.164286  0.01  0
               0.178571  0.01  0
               0.192857  0.01  0
               0.2  -0.005  0
               0.2  0.005  0
            </DataArray>
         </Points>

         <Cells>
            <DataArray type="Int32" Name="connectivity" NumberOfComponents="1" format="ascii">

            </DataArray>
            <DataArray type="Int32" Name="offsets" NumberOfComponents="1" format="ascii">

            </DataArray>
            <DataArray type="UInt8"  Name="types" NumberOfComponents="1" format="ascii">

            </DataArray>
         </Cells>
         <PointData Scalars="Rank " Vectors="Force Displacement ">
            <DataArray type="UInt32" Name="Rank" NumberOfComponents="1" format="ascii">
               0 0 0 0 0 0 0 0 0 0 0 0 0 0 0 0 0 0 0 0 0 0 0 0 0 0 0 0 0 0 0 0
            </DataArray>
            <DataArray type="Float64" Name="Force" NumberOfComponents="3" format="ascii">
               2.03405 0.0220573 0.0  2.11507 -0.0170298 0.0  0.419688 -0.208427 0.0  0.278344 -0.262319 0.0  0.192684 -0.0728253 0.0  0.172051 0.0374625 0.0  0.162604 0.0689391 0.0  0.1608 0.0861218 0.0  0.162263 0.0918716 0.0  0.165667 0.0815694 0.0  0.169731 0.0569201 0.0  0.174273 0.0216672 0.0  0.179615 -0.0220863 0.0  0.186336 -0.0739116 0.0  0.194739 -0.134593 0.0  0.196305 -0.190985 0.0  0.455539 -0.572856 0.0  0.335624 -0.451258 0.0  0.256084 -0.499496 0.0  0.225866 -0.494898 0.0  0.208812 -0.458954 0.0  0.200409 -0.423035 0.0  0.197312 -0.38392 0.0  0.19761 -0.336306 0.0  0.199929 -0.279395 0.0  0.203451 -0.213446 0.0  0.208714 -0.138488 0.0  0.216177 -0.0528623 0.0  0.22723 0.046195 0.0  0.232696 0.152033 0.0  0.293427 -0.0104322 0.0  0.318725 0.0274662 0.0
            </DataArray>
            <DataArray type="Float64" Name="Displacement" NumberOfComponents="3" format="ascii">
               6.66012e-05 4.43592e-07 0.0  -6.66012e-05 -4.43592e-07 0.0  0.000132569 9.60317e-05 0.0  0.000131301 0.000286321 0.0  0.000130034 0.00047661 0.0  0.000128766 0.000666899 0.0  0.000127499 0.000857188 0.0  0.000126232 0.00104748 0.0  0.000124964 0.00123777 0.0  0.000123697 0.00142806 0.0  0.000122429 0.00161834 0.0  0.000121162 0.00180863 0.0  0.000119895 0.00199892 0.0  0.000118627 0.00218921 0.0  0.00011736 0.0023795 0.0  0.000116092 0.00256979 0.0  -0.000133836 9.42574e-05 0.0  -0.000135103 0.000284546 0.0  -0.000136371 0.000474836 0.0  -0.000137638 0.000665125 0.0  -0.000138906 0.000855414 0.0  -0.000140173 0.0010457 0.0  -0.000141441 0.00123599 0.0  -0.000142708 0.00142628 0.0  -0.000143975 0.00161657 0.0  -0.000145243 0.00180686 0.0  -0.00014651 0.00199715 0.0  -0.000147778 0.00218744 0.0  -0.000149045 0.00237773 0.0  -0.000150312 0.00256802 0.0  4.88575e-05 0.00266449 0.0  -8.43448e-05 0.0026636 0.0
            </DataArray>
         </PointData>
      </Piece>
   </UnstructuredGrid>
</VTKFile>
