<?xml version="1.0"?>
<VTKFile type="UnstructuredGrid" version="0.1" byte_order="LittleEndian">
   <UnstructuredGrid>
      <Piece NumberOfPoints="32" NumberOfCells="0" >
         <Points>
            <DataArray type="Float64" Name="Position" NumberOfComponents="3" format="ascii">
               0  -0.005  0
               0  0.005  0
               0.00714286  -0.01  0
               0.0214286  -0.01  0
               0.0357143  -0.01  0
               0.05  -0.01  0
               0.0642857  -0.01  0
               0.0785714  -0.01  0
               0.0928571  -0.01  0
               0.107143  -0.01  0
               0.121429  -0.01  0
               0.135714  -0.01  0
               0.15  -0.01  0
               0.164286  -0.01  0
               0.178571  -0.01  0
               0.192857  -0.01  0
               0.00714286  0.01  0
               0.0214286  0.01  0
               0.0357143  0.01  0
               0.05  0.01  0
               0.0642857  0.01  0
               0.0785714  0.01  0
               0.0928571  0.01  0
               0.107143  0.01  0
               0.121429  0.01  0
               0.135714  0.01  0
               0.15  0.01  0
               0.164286  0.01  0
               0.178571  0.01  0
               0.192857  0.01  0
               0.2  -0.005  0
               0.2  0.005  0
            </DataArray>
         </Points>

         <Cells>
            <DataArray type="Int32" Name="connectivity" NumberOfComponents="1" format="ascii">

            </DataArray>
            <DataArray type="Int32" Name="offsets" NumberOfComponents="1" format="ascii">

            </DataArray>
            <DataArray type="UInt8"  Name="types" NumberOfComponents="1" format="ascii">

            </DataArray>
         </Cells>
         <PointData Scalars="Rank " Vectors="Force Displacement ">
            <DataArray type="UInt32" Name="Rank" NumberOfComponents="1" format="ascii">
               0 0 0 0 0 0 0 0 0 0 0 0 0 0 0 0 0 0 0 0 0 0 0 0 0 0 0 0 0 0 0 0
            </DataArray>
            <DataArray type="Float64" Name="Force" NumberOfComponents="3" format="ascii">
               2.065 0.00862132 0.0  2.11557 -0.033599 0.0  0.440341 -0.113801 0.0  0.315011 -0.194494 0.0  0.236265 -0.0328739 0.0  0.212685 0.0539358 0.0  0.200511 0.0699875 0.0  0.192069 0.072936 0.0  0.186788 0.0691047 0.0  0.183472 0.0560219 0.0  0.180984 0.0361102 0.0  0.1788 0.0116732 0.0  0.177336 -0.0163461 0.0  0.176331 -0.0503484 0.0  0.176493 -0.0940119 0.0  0.168899 -0.133304 0.0  0.432154 -0.544791 0.0  0.290718 -0.437833 0.0  0.207895 -0.508147 0.0  0.179005 -0.5216 0.0  0.166316 -0.50135 0.0  0.16505 -0.480837 0.0  0.168274 -0.455334 0.0  0.176023 -0.410333 0.0  0.185799 -0.348429 0.0  0.196853 -0.271639 0.0  0.210082 -0.179417 0.0  0.226763 -0.0694365 0.0  0.249097 0.0625616 0.0  0.26842 0.208998 0.0  0.235238 0.000743019 0.0  0.410218 0.0246899 0.0
            </DataArray>
            <DataArray type="Float64" Name="Displacement" NumberOfComponents="3" format="ascii">
               2.78907e-05 7.77896e-08 0.0  -2.78907e-05 -7.77896e-08 0.0  5.56702e-05 3.99994e-05 0.0  5.5448e-05 0.000119687 0.0  5.52257e-05 0.000199375 0.0  5.50035e-05 0.000279062 0.0  5.47812e-05 0.00035875 0.0  5.4559e-05 0.000438438 0.0  5.43367e-05 0.000518125 0.0  5.41144e-05 0.000597813 0.0  5.38922e-05 0.000677501 0.0  5.36699e-05 0.000757188 0.0  5.34477e-05 0.000836876 0.0  5.32254e-05 0.000916564 0.0  5.30032e-05 0.000996251 0.0  5.27809e-05 0.00107594 0.0  -5.58925e-05 3.96883e-05 0.0  -5.61148e-05 0.000119376 0.0  -5.6337e-05 0.000199064 0.0  -5.65593e-05 0.000278751 0.0  -5.67815e-05 0.000358439 0.0  -5.70038e-05 0.000438127 0.0  -5.7226e-05 0.000517814 0.0  -5.74483e-05 0.000597502 0.0  -5.76705e-05 0.00067719 0.0  -5.78928e-05 0.000756877 0.0  -5.81151e-05 0.000836565 0.0  -5.83373e-05 0.000916253 0.0  -5.85596e-05 0.00099594 0.0  -5.87818e-05 0.00107563 0.0  2.47791e-05 0.00111571 0.0  -3.10023e-05 0.00111555 0.0
            </DataArray>
         </PointData>
      </Piece>
   </UnstructuredGrid>
</VTKFile>
