<?xml version="1.0"?>
<VTKFile type="UnstructuredGrid" version="0.1" byte_order="LittleEndian">
   <UnstructuredGrid>
      <Piece NumberOfPoints="32" NumberOfCells="0" >
         <Points>
            <DataArray type="Float64" Name="Position" NumberOfComponents="3" format="ascii">
               0  -0.005  0
               0  0.005  0
               0.00714286  -0.01  0
               0.0214286  -0.01  0
               0.0357143  -0.01  0
               0.05  -0.01  0
               0.0642857  -0.01  0
               0.0785714  -0.01  0
               0.0928571  -0.01  0
               0.107143  -0.01  0
               0.121429  -0.01  0
               0.135714  -0.01  0
               0.15  -0.01  0
               0.164286  -0.01  0
               0.178571  -0.01  0
               0.192857  -0.01  0
               0.00714286  0.01  0
               0.0214286  0.01  0
               0.0357143  0.01  0
               0.05  0.01  0
               0.0642857  0.01  0
               0.0785714  0.01  0
               0.0928571  0.01  0
               0.107143  0.01  0
               0.121429  0.01  0
               0.135714  0.01  0
               0.15  0.01  0
               0.164286  0.01  0
               0.178571  0.01  0
               0.192857  0.01  0
               0.2  -0.005  0
               0.2  0.005  0
            </DataArray>
         </Points>

         <Cells>
            <DataArray type="Int32" Name="connectivity" NumberOfComponents="1" format="ascii">

            </DataArray>
            <DataArray type="Int32" Name="offsets" NumberOfComponents="1" format="ascii">

            </DataArray>
            <DataArray type="UInt8"  Name="types" NumberOfComponents="1" format="ascii">

            </DataArray>
         </Cells>
         <PointData Scalars="Rank " Vectors="Force Displacement ">
            <DataArray type="UInt32" Name="Rank" NumberOfComponents="1" format="ascii">
               0 0 0 0 0 0 0 0 0 0 0 0 0 0 0 0 0 0 0 0 0 0 0 0 0 0 0 0 0 0 0 0
            </DataArray>
            <DataArray type="Float64" Name="Force" NumberOfComponents="3" format="ascii">
               2.084 0.0191442 0.0  2.10053 -0.0285505 0.0  0.433075 0.129748 0.0  0.294292 0.0406761 0.0  0.211425 0.170604 0.0  0.189034 0.233693 0.0  0.175787 0.232211 0.0  0.171792 0.233935 0.0  0.172246 0.226175 0.0  0.175412 0.202664 0.0  0.179564 0.165324 0.0  0.184282 0.117529 0.0  0.190183 0.0606718 0.0  0.197913 -0.00556956 0.0  0.208213 -0.0829745 0.0  0.212383 -0.16102 0.0  0.448964 -0.322135 0.0  0.31653 -0.206393 0.0  0.23315 -0.283421 0.0  0.204663 -0.314911 0.0  0.191848 -0.310124 0.0  0.185349 -0.295668 0.0  0.184009 -0.273159 0.0  0.185415 -0.239424 0.0  0.188101 -0.194535 0.0  0.19169 -0.140722 0.0  0.196558 -0.078668 0.0  0.203352 -0.00771113 0.0  0.21273 0.0741316 0.0  0.216105 0.156447 0.0  0.304985 -0.0186208 0.0  0.304652 0.0189407 0.0
            </DataArray>
            <DataArray type="Float64" Name="Displacement" NumberOfComponents="3" format="ascii">
               -6.95141e-07 0 0.0  6.95141e-07 0 0.0  -1.39035e-06 -9.92962e-07 0.0  -1.39049e-06 -2.97908e-06 0.0  -1.39063e-06 -4.9652e-06 0.0  -1.39077e-06 -6.95132e-06 0.0  -1.3909e-06 -8.93743e-06 0.0  -1.39104e-06 -1.09236e-05 0.0  -1.39118e-06 -1.29097e-05 0.0  -1.39132e-06 -1.48958e-05 0.0  -1.39146e-06 -1.68819e-05 0.0  -1.39159e-06 -1.8868e-05 0.0  -1.39173e-06 -2.08541e-05 0.0  -1.39187e-06 -2.28403e-05 0.0  -1.39201e-06 -2.48264e-05 0.0  -1.39215e-06 -2.68125e-05 0.0  1.39021e-06 -9.93156e-07 0.0  1.39008e-06 -2.97927e-06 0.0  1.38994e-06 -4.96539e-06 0.0  1.3898e-06 -6.95151e-06 0.0  1.38966e-06 -8.93763e-06 0.0  1.38952e-06 -1.09237e-05 0.0  1.38938e-06 -1.29099e-05 0.0  1.38925e-06 -1.4896e-05 0.0  1.38911e-06 -1.68821e-05 0.0  1.38897e-06 -1.88682e-05 0.0  1.38883e-06 -2.08543e-05 0.0  1.38869e-06 -2.28405e-05 0.0  1.38856e-06 -2.48266e-05 0.0  1.38842e-06 -2.68127e-05 0.0  -6.97074e-07 -2.78056e-05 0.0  6.93208e-07 -2.78057e-05 0.0
            </DataArray>
         </PointData>
      </Piece>
   </UnstructuredGrid>
</VTKFile>
