<?xml version="1.0"?>
<VTKFile type="UnstructuredGrid" version="0.1" byte_order="LittleEndian">
   <UnstructuredGrid>
      <Piece NumberOfPoints="32" NumberOfCells="0" >
         <Points>
            <DataArray type="Float64" Name="Position" NumberOfComponents="3" format="ascii">
               0  -0.005  0
               0  0.005  0
               0.00714286  -0.01  0
               0.0214286  -0.01  0
               0.0357143  -0.01  0
               0.05  -0.01  0
               0.0642857  -0.01  0
               0.0785714  -0.01  0
               0.0928571  -0.01  0
               0.107143  -0.01  0
               0.121429  -0.01  0
               0.135714  -0.01  0
               0.15  -0.01  0
               0.164286  -0.01  0
               0.178571  -0.01  0
               0.192857  -0.01  0
               0.00714286  0.01  0
               0.0214286  0.01  0
               0.0357143  0.01  0
               0.05  0.01  0
               0.0642857  0.01  0
               0.0785714  0.01  0
               0.0928571  0.01  0
               0.107143  0.01  0
               0.121429  0.01  0
               0.135714  0.01  0
               0.15  0.01  0
               0.164286  0.01  0
               0.178571  0.01  0
               0.192857  0.01  0
               0.2  -0.005  0
               0.2  0.005  0
            </DataArray>
         </Points>

         <Cells>
            <DataArray type="Int32" Name="connectivity" NumberOfComponents="1" format="ascii">

            </DataArray>
            <DataArray type="Int32" Name="offsets" NumberOfComponents="1" format="ascii">

            </DataArray>
            <DataArray type="UInt8"  Name="types" NumberOfComponents="1" format="ascii">

            </DataArray>
         </Cells>
         <PointData Scalars="Rank " Vectors="Force Displacement ">
            <DataArray type="UInt32" Name="Rank" NumberOfComponents="1" format="ascii">
               0 0 0 0 0 0 0 0 0 0 0 0 0 0 0 0 0 0 0 0 0 0 0 0 0 0 0 0 0 0 0 0
            </DataArray>
            <DataArray type="Float64" Name="Force" NumberOfComponents="3" format="ascii">
               2.0796 0.0155462 0.0  2.10396 -0.0310501 0.0  0.437095 0.0679276 0.0  0.303069 -0.0248015 0.0  0.22272 0.0936515 0.0  0.195191 0.146091 0.0  0.180874 0.157422 0.0  0.176606 0.167889 0.0  0.175266 0.160083 0.0  0.176301 0.137722 0.0  0.178009 0.103696 0.0  0.180188 0.0619782 0.0  0.183187 0.0139989 0.0  0.187522 -0.0401902 0.0  0.194269 -0.101426 0.0  0.192023 -0.161455 0.0  0.444275 -0.380055 0.0  0.309597 -0.270643 0.0  0.226313 -0.344588 0.0  0.197054 -0.374998 0.0  0.183931 -0.373117 0.0  0.179021 -0.362566 0.0  0.179905 -0.34299 0.0  0.183658 -0.308936 0.0  0.18906 -0.261137 0.0  0.195412 -0.201385 0.0  0.203296 -0.130461 0.0  0.213526 -0.0473479 0.0  0.226874 0.0521145 0.0  0.236084 0.156958 0.0  0.249878 -0.0019717 0.0  0.321417 0.0285887 0.0
            </DataArray>
            <DataArray type="Float64" Name="Displacement" NumberOfComponents="3" format="ascii">
               4.87218e-06 2.37382e-09 0.0  -4.87218e-06 -2.37382e-09 0.0  9.74098e-06 6.96501e-06 0.0  9.73419e-06 2.08855e-05 0.0  9.72741e-06 3.48061e-05 0.0  9.72063e-06 4.87266e-05 0.0  9.71385e-06 6.26471e-05 0.0  9.70706e-06 7.65676e-05 0.0  9.70028e-06 9.04881e-05 0.0  9.6935e-06 0.000104409 0.0  9.68672e-06 0.000118329 0.0  9.67993e-06 0.00013225 0.0  9.67315e-06 0.00014617 0.0  9.66637e-06 0.000160091 0.0  9.65959e-06 0.000174011 0.0  9.6528e-06 0.000187932 0.0  -9.74776e-06 6.95551e-06 0.0  -9.75454e-06 2.0876e-05 0.0  -9.76132e-06 3.47966e-05 0.0  -9.7681e-06 4.87171e-05 0.0  -9.77489e-06 6.26376e-05 0.0  -9.78167e-06 7.65581e-05 0.0  -9.78845e-06 9.04787e-05 0.0  -9.79523e-06 0.000104399 0.0  -9.80202e-06 0.00011832 0.0  -9.8088e-06 0.00013224 0.0  -9.81558e-06 0.000146161 0.0  -9.82236e-06 0.000160081 0.0  -9.82915e-06 0.000174002 0.0  -9.83593e-06 0.000187922 0.0  4.77723e-06 0.00019489 0.0  -4.96714e-06 0.000194885 0.0
            </DataArray>
         </PointData>
      </Piece>
   </UnstructuredGrid>
</VTKFile>
