<?xml version="1.0"?>
<VTKFile type="UnstructuredGrid" version="0.1" byte_order="LittleEndian">
   <UnstructuredGrid>
      <Piece NumberOfPoints="32" NumberOfCells="0" >
         <Points>
            <DataArray type="Float64" Name="Position" NumberOfComponents="3" format="ascii">
               0  -0.005  0
               0  0.005  0
               0.00714286  -0.01  0
               0.0214286  -0.01  0
               0.0357143  -0.01  0
               0.05  -0.01  0
               0.0642857  -0.01  0
               0.0785714  -0.01  0
               0.0928571  -0.01  0
               0.107143  -0.01  0
               0.121429  -0.01  0
               0.135714  -0.01  0
               0.15  -0.01  0
               0.164286  -0.01  0
               0.178571  -0.01  0
               0.192857  -0.01  0
               0.00714286  0.01  0
               0.0214286  0.01  0
               0.0357143  0.01  0
               0.05  0.01  0
               0.0642857  0.01  0
               0.0785714  0.01  0
               0.0928571  0.01  0
               0.107143  0.01  0
               0.121429  0.01  0
               0.135714  0.01  0
               0.15  0.01  0
               0.164286  0.01  0
               0.178571  0.01  0
               0.192857  0.01  0
               0.2  -0.005  0
               0.2  0.005  0
            </DataArray>
         </Points>

         <Cells>
            <DataArray type="Int32" Name="connectivity" NumberOfComponents="1" format="ascii">

            </DataArray>
            <DataArray type="Int32" Name="offsets" NumberOfComponents="1" format="ascii">

            </DataArray>
            <DataArray type="UInt8"  Name="types" NumberOfComponents="1" format="ascii">

            </DataArray>
         </Cells>
         <PointData Scalars="Rank " Vectors="Force Displacement ">
            <DataArray type="UInt32" Name="Rank" NumberOfComponents="1" format="ascii">
               0 0 0 0 0 0 0 0 0 0 0 0 0 0 0 0 0 0 0 0 0 0 0 0 0 0 0 0 0 0 0 0
            </DataArray>
            <DataArray type="Float64" Name="Force" NumberOfComponents="3" format="ascii">
               2.09429 0.0208004 0.0  2.09513 -0.0274429 0.0  0.429895 0.229297 0.0  0.286626 0.140242 0.0  0.204277 0.253898 0.0  0.179969 0.306307 0.0  0.167158 0.308838 0.0  0.165514 0.305587 0.0  0.168408 0.293127 0.0  0.174531 0.265037 0.0  0.181914 0.22244 0.0  0.190447 0.167975 0.0  0.200674 0.10168 0.0  0.213243 0.0221134 0.0  0.229665 -0.0733376 0.0  0.241866 -0.174611 0.0  0.45389 -0.230468 0.0  0.324244 -0.109358 0.0  0.242644 -0.192838 0.0  0.211355 -0.228683 0.0  0.19973 -0.234018 0.0  0.192202 -0.22384 0.0  0.188089 -0.203369 0.0  0.185979 -0.172476 0.0  0.185043 -0.133084 0.0  0.184871 -0.0872972 0.0  0.185691 -0.0359061 0.0  0.187873 0.0216626 0.0  0.19248 0.0868012 0.0  0.188429 0.152362 0.0  0.328992 -0.0324424 0.0  0.252369 -0.00379126 0.0
            </DataArray>
            <DataArray type="Float64" Name="Displacement" NumberOfComponents="3" format="ascii">
               -1.79098e-05 3.20762e-08 0.0  1.79098e-05 -3.20762e-08 0.0  -3.58654e-05 -2.55213e-05 0.0  -3.59571e-05 -7.66921e-05 0.0  -3.60487e-05 -0.000127863 0.0  -3.61404e-05 -0.000179034 0.0  -3.6232e-05 -0.000230205 0.0  -3.63237e-05 -0.000281376 0.0  -3.64153e-05 -0.000332546 0.0  -3.6507e-05 -0.000383717 0.0  -3.65986e-05 -0.000434888 0.0  -3.66902e-05 -0.000486059 0.0  -3.67819e-05 -0.00053723 0.0  -3.68735e-05 -0.000588401 0.0  -3.69652e-05 -0.000639572 0.0  -3.70568e-05 -0.000690742 0.0  3.57738e-05 -2.56496e-05 0.0  3.56821e-05 -7.68204e-05 0.0  3.55905e-05 -0.000127991 0.0  3.54988e-05 -0.000179162 0.0  3.54072e-05 -0.000230333 0.0  3.53155e-05 -0.000281504 0.0  3.52239e-05 -0.000332675 0.0  3.51323e-05 -0.000383846 0.0  3.50406e-05 -0.000435016 0.0  3.4949e-05 -0.000486187 0.0  3.48573e-05 -0.000537358 0.0  3.47657e-05 -0.000588529 0.0  3.4674e-05 -0.0006397 0.0  3.45824e-05 -0.000690871 0.0  -1.91929e-05 -0.00071636 0.0  1.66268e-05 -0.000716424 0.0
            </DataArray>
         </PointData>
      </Piece>
   </UnstructuredGrid>
</VTKFile>
