<?xml version="1.0"?>
<VTKFile type="UnstructuredGrid" version="0.1" byte_order="LittleEndian">
   <UnstructuredGrid>
      <Piece NumberOfPoints="32" NumberOfCells="0" >
         <Points>
            <DataArray type="Float64" Name="Position" NumberOfComponents="3" format="ascii">
               0  -0.005  0
               0  0.005  0
               0.00714286  -0.01  0
               0.0214286  -0.01  0
               0.0357143  -0.01  0
               0.05  -0.01  0
               0.0642857  -0.01  0
               0.0785714  -0.01  0
               0.0928571  -0.01  0
               0.107143  -0.01  0
               0.121429  -0.01  0
               0.135714  -0.01  0
               0.15  -0.01  0
               0.164286  -0.01  0
               0.178571  -0.01  0
               0.192857  -0.01  0
               0.00714286  0.01  0
               0.0214286  0.01  0
               0.0357143  0.01  0
               0.05  0.01  0
               0.0642857  0.01  0
               0.0785714  0.01  0
               0.0928571  0.01  0
               0.107143  0.01  0
               0.121429  0.01  0
               0.135714  0.01  0
               0.15  0.01  0
               0.164286  0.01  0
               0.178571  0.01  0
               0.192857  0.01  0
               0.2  -0.005  0
               0.2  0.005  0
            </DataArray>
         </Points>

         <Cells>
            <DataArray type="Int32" Name="connectivity" NumberOfComponents="1" format="ascii">

            </DataArray>
            <DataArray type="Int32" Name="offsets" NumberOfComponents="1" format="ascii">

            </DataArray>
            <DataArray type="UInt8"  Name="types" NumberOfComponents="1" format="ascii">

            </DataArray>
         </Cells>
         <PointData Scalars="Rank " Vectors="Force Displacement ">
            <DataArray type="UInt32" Name="Rank" NumberOfComponents="1" format="ascii">
               0 0 0 0 0 0 0 0 0 0 0 0 0 0 0 0 0 0 0 0 0 0 0 0 0 0 0 0 0 0 0 0
            </DataArray>
            <DataArray type="Float64" Name="Force" NumberOfComponents="3" format="ascii">
               2.04417 0.0249406 0.0  2.12508 -0.0142858 0.0  0.415159 -0.181335 0.0  0.27061 -0.225819 0.0  0.184636 -0.0292644 0.0  0.162768 0.0837593 0.0  0.153947 0.120356 0.0  0.152791 0.140843 0.0  0.15496 0.148848 0.0  0.158978 0.139723 0.0  0.164158 0.115327 0.0  0.170061 0.0790827 0.0  0.176887 0.0328253 0.0  0.185351 -0.0234159 0.0  0.195909 -0.0912301 0.0  0.20019 -0.158761 0.0  0.460059 -0.569271 0.0  0.344285 -0.44082 0.0  0.265886 -0.4827 0.0  0.234821 -0.47099 0.0  0.217477 -0.429158 0.0  0.20816 -0.387919 0.0  0.203698 -0.344819 0.0  0.202511 -0.295002 0.0  0.203313 -0.237468 0.0  0.205489 -0.172983 0.0  0.209233 -0.101602 0.0  0.214844 -0.0219245 0.0  0.224631 0.067827 0.0  0.227487 0.161602 0.0  0.290903 -0.00993645 0.0  0.307266 0.0280447 0.0
            </DataArray>
            <DataArray type="Float64" Name="Displacement" NumberOfComponents="3" format="ascii">
               6.88713e-05 4.74348e-07 0.0  -6.88713e-05 -4.74348e-07 0.0  0.000137065 9.93362e-05 0.0  0.00013571 0.000296111 0.0  0.000134354 0.000492886 0.0  0.000132999 0.000689661 0.0  0.000131644 0.000886437 0.0  0.000130289 0.00108321 0.0  0.000128933 0.00127999 0.0  0.000127578 0.00147676 0.0  0.000126223 0.00167354 0.0  0.000124867 0.00187031 0.0  0.000123512 0.00206709 0.0  0.000122157 0.00226386 0.0  0.000120802 0.00246064 0.0  0.000119446 0.00265741 0.0  -0.00013842 9.74388e-05 0.0  -0.000139775 0.000294214 0.0  -0.000141131 0.000490989 0.0  -0.000142486 0.000687764 0.0  -0.000143841 0.000884539 0.0  -0.000145197 0.00108131 0.0  -0.000146552 0.00127809 0.0  -0.000147907 0.00147486 0.0  -0.000149262 0.00167164 0.0  -0.000150618 0.00186841 0.0  -0.000151973 0.00206519 0.0  -0.000153328 0.00226196 0.0  -0.000154684 0.00245874 0.0  -0.000156039 0.00265551 0.0  4.98974e-05 0.00275533 0.0  -8.78452e-05 0.00275438 0.0
            </DataArray>
         </PointData>
      </Piece>
   </UnstructuredGrid>
</VTKFile>
