<?xml version="1.0"?>
<VTKFile type="UnstructuredGrid" version="0.1" byte_order="LittleEndian">
   <UnstructuredGrid>
      <Piece NumberOfPoints="32" NumberOfCells="0" >
         <Points>
            <DataArray type="Float64" Name="Position" NumberOfComponents="3" format="ascii">
               0  -0.005  0
               0  0.005  0
               0.00714286  -0.01  0
               0.0214286  -0.01  0
               0.0357143  -0.01  0
               0.05  -0.01  0
               0.0642857  -0.01  0
               0.0785714  -0.01  0
               0.0928571  -0.01  0
               0.107143  -0.01  0
               0.121429  -0.01  0
               0.135714  -0.01  0
               0.15  -0.01  0
               0.164286  -0.01  0
               0.178571  -0.01  0
               0.192857  -0.01  0
               0.00714286  0.01  0
               0.0214286  0.01  0
               0.0357143  0.01  0
               0.05  0.01  0
               0.0642857  0.01  0
               0.0785714  0.01  0
               0.0928571  0.01  0
               0.107143  0.01  0
               0.121429  0.01  0
               0.135714  0.01  0
               0.15  0.01  0
               0.164286  0.01  0
               0.178571  0.01  0
               0.192857  0.01  0
               0.2  -0.005  0
               0.2  0.005  0
            </DataArray>
         </Points>

         <Cells>
            <DataArray type="Int32" Name="connectivity" NumberOfComponents="1" format="ascii">

            </DataArray>
            <DataArray type="Int32" Name="offsets" NumberOfComponents="1" format="ascii">

            </DataArray>
            <DataArray type="UInt8"  Name="types" NumberOfComponents="1" format="ascii">

            </DataArray>
         </Cells>
         <PointData Scalars="Rank " Vectors="Force Displacement ">
            <DataArray type="UInt32" Name="Rank" NumberOfComponents="1" format="ascii">
               0 0 0 0 0 0 0 0 0 0 0 0 0 0 0 0 0 0 0 0 0 0 0 0 0 0 0 0 0 0 0 0
            </DataArray>
            <DataArray type="Float64" Name="Force" NumberOfComponents="3" format="ascii">
               2.04593 0.0197482 0.0  2.06759 -0.0275441 0.0  0.432694 0.0605775 0.0  0.294958 -0.0276662 0.0  0.212484 0.104804 0.0  0.190408 0.169905 0.0  0.176913 0.169766 0.0  0.172753 0.17113 0.0  0.172965 0.163094 0.0  0.175572 0.139443 0.0  0.179388 0.103488 0.0  0.184133 0.0586122 0.0  0.190497 0.00620488 0.0  0.199083 -0.0539787 0.0  0.210741 -0.123913 0.0  0.216156 -0.19363 0.0  0.446258 -0.3016 0.0  0.313399 -0.188939 0.0  0.230021 -0.264038 0.0  0.201064 -0.293762 0.0  0.188679 -0.290472 0.0  0.182563 -0.27694 0.0  0.181808 -0.254659 0.0  0.183664 -0.220123 0.0  0.186991 -0.174505 0.0  0.191594 -0.120379 0.0  0.198028 -0.0584411 0.0  0.206944 0.0122536 0.0  0.219224 0.0944235 0.0  0.225753 0.179081 0.0  0.328222 -0.0171872 0.0  0.337187 0.0204322 0.0
            </DataArray>
            <DataArray type="Float64" Name="Displacement" NumberOfComponents="3" format="ascii">
               6.36532e-06 4.05173e-09 0.0  -6.36532e-06 -4.05173e-09 0.0  1.27248e-05 9.10141e-06 0.0  1.27133e-05 2.7288e-05 0.0  1.27017e-05 4.54747e-05 0.0  1.26901e-05 6.36613e-05 0.0  1.26785e-05 8.18479e-05 0.0  1.2667e-05 0.000100035 0.0  1.26554e-05 0.000118221 0.0  1.26438e-05 0.000136408 0.0  1.26322e-05 0.000154594 0.0  1.26207e-05 0.000172781 0.0  1.26091e-05 0.000190968 0.0  1.25975e-05 0.000209154 0.0  1.25859e-05 0.000227341 0.0  1.25744e-05 0.000245528 0.0  -1.27364e-05 9.08521e-06 0.0  -1.2748e-05 2.72718e-05 0.0  -1.27596e-05 4.54585e-05 0.0  -1.27712e-05 6.36451e-05 0.0  -1.27827e-05 8.18317e-05 0.0  -1.27943e-05 0.000100018 0.0  -1.28059e-05 0.000118205 0.0  -1.28175e-05 0.000136392 0.0  -1.2829e-05 0.000154578 0.0  -1.28406e-05 0.000172765 0.0  -1.28522e-05 0.000190951 0.0  -1.28638e-05 0.000209138 0.0  -1.28753e-05 0.000227325 0.0  -1.28869e-05 0.000245511 0.0  6.20325e-06 0.000254617 0.0  -6.52739e-06 0.000254609 0.0
            </DataArray>
         </PointData>
      </Piece>
   </UnstructuredGrid>
</VTKFile>
