<?xml version="1.0"?>
<VTKFile type="UnstructuredGrid" version="0.1" byte_order="LittleEndian">
   <UnstructuredGrid>
      <Piece NumberOfPoints="32" NumberOfCells="0" >
         <Points>
            <DataArray type="Float64" Name="Position" NumberOfComponents="3" format="ascii">
               0  -0.005  0
               0  0.005  0
               0.00714286  -0.01  0
               0.0214286  -0.01  0
               0.0357143  -0.01  0
               0.05  -0.01  0
               0.0642857  -0.01  0
               0.0785714  -0.01  0
               0.0928571  -0.01  0
               0.107143  -0.01  0
               0.121429  -0.01  0
               0.135714  -0.01  0
               0.15  -0.01  0
               0.164286  -0.01  0
               0.178571  -0.01  0
               0.192857  -0.01  0
               0.00714286  0.01  0
               0.0214286  0.01  0
               0.0357143  0.01  0
               0.05  0.01  0
               0.0642857  0.01  0
               0.0785714  0.01  0
               0.0928571  0.01  0
               0.107143  0.01  0
               0.121429  0.01  0
               0.135714  0.01  0
               0.15  0.01  0
               0.164286  0.01  0
               0.178571  0.01  0
               0.192857  0.01  0
               0.2  -0.005  0
               0.2  0.005  0
            </DataArray>
         </Points>

         <Cells>
            <DataArray type="Int32" Name="connectivity" NumberOfComponents="1" format="ascii">

            </DataArray>
            <DataArray type="Int32" Name="offsets" NumberOfComponents="1" format="ascii">

            </DataArray>
            <DataArray type="UInt8"  Name="types" NumberOfComponents="1" format="ascii">

            </DataArray>
         </Cells>
         <PointData Scalars="Rank " Vectors="Force Displacement ">
            <DataArray type="UInt32" Name="Rank" NumberOfComponents="1" format="ascii">
               0 0 0 0 0 0 0 0 0 0 0 0 0 0 0 0 0 0 0 0 0 0 0 0 0 0 0 0 0 0 0 0
            </DataArray>
            <DataArray type="Float64" Name="Force" NumberOfComponents="3" format="ascii">
               2.02994 0.0205048 0.0  2.08421 -0.0231518 0.0  0.42579 -0.10632 0.0  0.286448 -0.176676 0.0  0.202428 -0.0130811 0.0  0.181335 0.0766737 0.0  0.169946 0.0958508 0.0  0.167196 0.103484 0.0  0.16791 0.101658 0.0  0.170765 0.0848932 0.0  0.17428 0.0546854 0.0  0.178383 0.0146165 0.0  0.183407 -0.0335417 0.0  0.189929 -0.0895949 0.0  0.198364 -0.154529 0.0  0.200192 -0.215938 0.0  0.450815 -0.438633 0.0  0.3237 -0.321771 0.0  0.24314 -0.387692 0.0  0.214609 -0.39802 0.0  0.198841 -0.373954 0.0  0.191489 -0.347417 0.0  0.189506 -0.315718 0.0  0.190698 -0.274051 0.0  0.193414 -0.222098 0.0  0.197315 -0.160773 0.0  0.202759 -0.0902449 0.0  0.210383 -0.00939514 0.0  0.221182 0.0844674 0.0  0.22658 0.183097 0.0  0.315998 -0.0129196 0.0  0.336858 0.0246131 0.0
            </DataArray>
            <DataArray type="Float64" Name="Displacement" NumberOfComponents="3" format="ascii">
               3.82796e-05 1.46535e-07 0.0  -3.82796e-05 -1.46535e-07 0.0  7.63499e-05 5.49782e-05 0.0  7.59312e-05 0.000164349 0.0  7.55126e-05 0.000273719 0.0  7.50939e-05 0.000383089 0.0  7.46752e-05 0.00049246 0.0  7.42565e-05 0.00060183 0.0  7.38379e-05 0.0007112 0.0  7.34192e-05 0.000820571 0.0  7.30005e-05 0.000929941 0.0  7.25819e-05 0.00103931 0.0  7.21632e-05 0.00114868 0.0  7.17445e-05 0.00125805 0.0  7.13258e-05 0.00136742 0.0  7.09072e-05 0.00147679 0.0  -7.67686e-05 5.43921e-05 0.0  -7.71872e-05 0.000163762 0.0  -7.76059e-05 0.000273133 0.0  -7.80246e-05 0.000382503 0.0  -7.84433e-05 0.000491873 0.0  -7.88619e-05 0.000601244 0.0  -7.92806e-05 0.000710614 0.0  -7.96993e-05 0.000819984 0.0  -8.01179e-05 0.000929355 0.0  -8.05366e-05 0.00103873 0.0  -8.09553e-05 0.0011481 0.0  -8.1374e-05 0.00125747 0.0  -8.17926e-05 0.00136684 0.0  -8.22113e-05 0.00147621 0.0  3.24182e-05 0.00153133 0.0  -4.4141e-05 0.00153104 0.0
            </DataArray>
         </PointData>
      </Piece>
   </UnstructuredGrid>
</VTKFile>
