<?xml version="1.0"?>
<VTKFile type="UnstructuredGrid" version="0.1" byte_order="LittleEndian">
   <UnstructuredGrid>
      <Piece NumberOfPoints="32" NumberOfCells="0" >
         <Points>
            <DataArray type="Float64" Name="Position" NumberOfComponents="3" format="ascii">
               0  -0.005  0
               0  0.005  0
               0.00714286  -0.01  0
               0.0214286  -0.01  0
               0.0357143  -0.01  0
               0.05  -0.01  0
               0.0642857  -0.01  0
               0.0785714  -0.01  0
               0.0928571  -0.01  0
               0.107143  -0.01  0
               0.121429  -0.01  0
               0.135714  -0.01  0
               0.15  -0.01  0
               0.164286  -0.01  0
               0.178571  -0.01  0
               0.192857  -0.01  0
               0.00714286  0.01  0
               0.0214286  0.01  0
               0.0357143  0.01  0
               0.05  0.01  0
               0.0642857  0.01  0
               0.0785714  0.01  0
               0.0928571  0.01  0
               0.107143  0.01  0
               0.121429  0.01  0
               0.135714  0.01  0
               0.15  0.01  0
               0.164286  0.01  0
               0.178571  0.01  0
               0.192857  0.01  0
               0.2  -0.005  0
               0.2  0.005  0
            </DataArray>
         </Points>

         <Cells>
            <DataArray type="Int32" Name="connectivity" NumberOfComponents="1" format="ascii">

            </DataArray>
            <DataArray type="Int32" Name="offsets" NumberOfComponents="1" format="ascii">

            </DataArray>
            <DataArray type="UInt8"  Name="types" NumberOfComponents="1" format="ascii">

            </DataArray>
         </Cells>
         <PointData Scalars="Rank " Vectors="Force Displacement ">
            <DataArray type="UInt32" Name="Rank" NumberOfComponents="1" format="ascii">
               0 0 0 0 0 0 0 0 0 0 0 0 0 0 0 0 0 0 0 0 0 0 0 0 0 0 0 0 0 0 0 0
            </DataArray>
            <DataArray type="Float64" Name="Force" NumberOfComponents="3" format="ascii">
               2.1223 0.00771325 0.0  2.05641 -0.0354328 0.0  0.446781 0.489054 0.0  0.319501 0.381719 0.0  0.240049 0.450061 0.0  0.212477 0.463073 0.0  0.196735 0.440648 0.0  0.189592 0.415518 0.0  0.187875 0.384601 0.0  0.189411 0.343105 0.0  0.192666 0.291162 0.0  0.196965 0.228999 0.0  0.202726 0.156634 0.0  0.211006 0.0729789 0.0  0.223101 -0.0250492 0.0  0.229206 -0.132163 0.0  0.435738 0.0712203 0.0  0.297625 0.152671 0.0  0.211278 -0.00782704 0.0  0.189078 -0.0942515 0.0  0.177571 -0.104591 0.0  0.172556 -0.107731 0.0  0.171778 -0.109981 0.0  0.174161 -0.0956096 0.0  0.17765 -0.06737 0.0  0.181707 -0.0291011 0.0  0.186554 0.0172249 0.0  0.192706 0.0711158 0.0  0.200589 0.133099 0.0  0.200735 0.189253 0.0  0.309842 -0.0243952 0.0  0.301892 0.013548 0.0
            </DataArray>
            <DataArray type="Float64" Name="Displacement" NumberOfComponents="3" format="ascii">
               -8.49553e-05 7.21792e-07 0.0  8.49553e-05 -7.21792e-07 0.0  -0.000170942 -0.000119921 0.0  -0.000173004 -0.00036265 0.0  -0.000175066 -0.00060538 0.0  -0.000177128 -0.000848109 0.0  -0.000179191 -0.00109084 0.0  -0.000181253 -0.00133357 0.0  -0.000183315 -0.0015763 0.0  -0.000185378 -0.00181903 0.0  -0.00018744 -0.00206176 0.0  -0.000189502 -0.00230449 0.0  -0.000191564 -0.00254721 0.0  -0.000193627 -0.00278994 0.0  -0.000195689 -0.00303267 0.0  -0.000197751 -0.0032754 0.0  0.000168879 -0.000122808 0.0  0.000166817 -0.000365538 0.0  0.000164755 -0.000608267 0.0  0.000162693 -0.000850996 0.0  0.00016063 -0.00109373 0.0  0.000158568 -0.00133645 0.0  0.000156506 -0.00157918 0.0  0.000154444 -0.00182191 0.0  0.000152381 -0.00206464 0.0  0.000150319 -0.00230737 0.0  0.000148257 -0.0025501 0.0  0.000146195 -0.00279283 0.0  0.000144132 -0.00303556 0.0  0.00014207 -0.00327829 0.0  -0.000113827 -0.00339749 0.0  5.60836e-05 -0.00339893 0.0
            </DataArray>
         </PointData>
      </Piece>
   </UnstructuredGrid>
</VTKFile>
