<?xml version="1.0"?>
<VTKFile type="UnstructuredGrid" version="0.1" byte_order="LittleEndian">
   <UnstructuredGrid>
      <Piece NumberOfPoints="32" NumberOfCells="0" >
         <Points>
            <DataArray type="Float64" Name="Position" NumberOfComponents="3" format="ascii">
               0  -0.005  0
               0  0.005  0
               0.00714286  -0.01  0
               0.0214286  -0.01  0
               0.0357143  -0.01  0
               0.05  -0.01  0
               0.0642857  -0.01  0
               0.0785714  -0.01  0
               0.0928571  -0.01  0
               0.107143  -0.01  0
               0.121429  -0.01  0
               0.135714  -0.01  0
               0.15  -0.01  0
               0.164286  -0.01  0
               0.178571  -0.01  0
               0.192857  -0.01  0
               0.00714286  0.01  0
               0.0214286  0.01  0
               0.0357143  0.01  0
               0.05  0.01  0
               0.0642857  0.01  0
               0.0785714  0.01  0
               0.0928571  0.01  0
               0.107143  0.01  0
               0.121429  0.01  0
               0.135714  0.01  0
               0.15  0.01  0
               0.164286  0.01  0
               0.178571  0.01  0
               0.192857  0.01  0
               0.2  -0.005  0
               0.2  0.005  0
            </DataArray>
         </Points>

         <Cells>
            <DataArray type="Int32" Name="connectivity" NumberOfComponents="1" format="ascii">

            </DataArray>
            <DataArray type="Int32" Name="offsets" NumberOfComponents="1" format="ascii">

            </DataArray>
            <DataArray type="UInt8"  Name="types" NumberOfComponents="1" format="ascii">

            </DataArray>
         </Cells>
         <PointData Scalars="Rank " Vectors="Force Displacement ">
            <DataArray type="UInt32" Name="Rank" NumberOfComponents="1" format="ascii">
               0 0 0 0 0 0 0 0 0 0 0 0 0 0 0 0 0 0 0 0 0 0 0 0 0 0 0 0 0 0 0 0
            </DataArray>
            <DataArray type="Float64" Name="Force" NumberOfComponents="3" format="ascii">
               2.08807 0.0178595 0.0  2.09732 -0.0299552 0.0  0.435107 0.161939 0.0  0.296632 0.0674996 0.0  0.214733 0.180179 0.0  0.19052 0.234426 0.0  0.176301 0.235792 0.0  0.172264 0.232887 0.0  0.173025 0.220884 0.0  0.176232 0.194813 0.0  0.18038 0.155543 0.0  0.185278 0.106677 0.0  0.1915 0.0499852 0.0  0.19955 -0.0150378 0.0  0.210446 -0.0901019 0.0  0.215008 -0.165206 0.0  0.448474 -0.29264 0.0  0.315378 -0.178036 0.0  0.232253 -0.256862 0.0  0.199844 -0.289676 0.0  0.189831 -0.299802 0.0  0.184206 -0.293184 0.0  0.183074 -0.275304 0.0  0.184482 -0.244495 0.0  0.187134 -0.201404 0.0  0.190529 -0.148524 0.0  0.195082 -0.086499 0.0  0.201514 -0.0145403 0.0  0.210487 0.0694572 0.0  0.213811 0.155349 0.0  0.298814 -0.0213448 0.0  0.304495 0.0165773 0.0
            </DataArray>
            <DataArray type="Float64" Name="Displacement" NumberOfComponents="3" format="ascii">
               -9.61173e-06 9.23855e-09 0.0  9.61173e-06 -9.23855e-09 0.0  -1.92367e-05 -1.37126e-05 0.0  -1.92631e-05 -4.11747e-05 0.0  -1.92895e-05 -6.86368e-05 0.0  -1.93159e-05 -9.60989e-05 0.0  -1.93423e-05 -0.000123561 0.0  -1.93686e-05 -0.000151023 0.0  -1.9395e-05 -0.000178485 0.0  -1.94214e-05 -0.000205947 0.0  -1.94478e-05 -0.000233409 0.0  -1.94742e-05 -0.000260871 0.0  -1.95006e-05 -0.000288334 0.0  -1.9527e-05 -0.000315796 0.0  -1.95534e-05 -0.000343258 0.0  -1.95798e-05 -0.00037072 0.0  1.92103e-05 -1.37495e-05 0.0  1.91839e-05 -4.12116e-05 0.0  1.91575e-05 -6.86737e-05 0.0  1.91311e-05 -9.61358e-05 0.0  1.91047e-05 -0.000123598 0.0  1.90783e-05 -0.00015106 0.0  1.90519e-05 -0.000178522 0.0  1.90255e-05 -0.000205984 0.0  1.89991e-05 -0.000233446 0.0  1.89727e-05 -0.000260908 0.0  1.89463e-05 -0.000288371 0.0  1.89199e-05 -0.000315833 0.0  1.88935e-05 -0.000343295 0.0  1.88671e-05 -0.000370757 0.0  -9.98128e-06 -0.00038446 0.0  9.24219e-06 -0.000384479 0.0
            </DataArray>
         </PointData>
      </Piece>
   </UnstructuredGrid>
</VTKFile>
