<?xml version="1.0"?>
<VTKFile type="UnstructuredGrid" version="0.1" byte_order="LittleEndian">
   <UnstructuredGrid>
      <Piece NumberOfPoints="32" NumberOfCells="0" >
         <Points>
            <DataArray type="Float64" Name="Position" NumberOfComponents="3" format="ascii">
               0  -0.005  0
               0  0.005  0
               0.00714286  -0.01  0
               0.0214286  -0.01  0
               0.0357143  -0.01  0
               0.05  -0.01  0
               0.0642857  -0.01  0
               0.0785714  -0.01  0
               0.0928571  -0.01  0
               0.107143  -0.01  0
               0.121429  -0.01  0
               0.135714  -0.01  0
               0.15  -0.01  0
               0.164286  -0.01  0
               0.178571  -0.01  0
               0.192857  -0.01  0
               0.00714286  0.01  0
               0.0214286  0.01  0
               0.0357143  0.01  0
               0.05  0.01  0
               0.0642857  0.01  0
               0.0785714  0.01  0
               0.0928571  0.01  0
               0.107143  0.01  0
               0.121429  0.01  0
               0.135714  0.01  0
               0.15  0.01  0
               0.164286  0.01  0
               0.178571  0.01  0
               0.192857  0.01  0
               0.2  -0.005  0
               0.2  0.005  0
            </DataArray>
         </Points>

         <Cells>
            <DataArray type="Int32" Name="connectivity" NumberOfComponents="1" format="ascii">

            </DataArray>
            <DataArray type="Int32" Name="offsets" NumberOfComponents="1" format="ascii">

            </DataArray>
            <DataArray type="UInt8"  Name="types" NumberOfComponents="1" format="ascii">

            </DataArray>
         </Cells>
         <PointData Scalars="Rank " Vectors="Force Displacement ">
            <DataArray type="UInt32" Name="Rank" NumberOfComponents="1" format="ascii">
               0 0 0 0 0 0 0 0 0 0 0 0 0 0 0 0 0 0 0 0 0 0 0 0 0 0 0 0 0 0 0 0
            </DataArray>
            <DataArray type="Float64" Name="Force" NumberOfComponents="3" format="ascii">
               2.07063 0.0209475 0.0  2.1057 -0.0250355 0.0  0.428749 0.0377088 0.0  0.291127 -0.0385335 0.0  0.207727 0.117489 0.0  0.186307 0.204486 0.0  0.174178 0.221761 0.0  0.17056 0.229413 0.0  0.170659 0.228276 0.0  0.173274 0.210329 0.0  0.176845 0.177443 0.0  0.180864 0.132591 0.0  0.185873 0.0766674 0.0  0.192568 0.00919187 0.0  0.201665 -0.0717152 0.0  0.204779 -0.156413 0.0  0.450064 -0.393901 0.0  0.319929 -0.276112 0.0  0.238613 -0.346253 0.0  0.210092 -0.355819 0.0  0.194532 -0.329824 0.0  0.187402 -0.302143 0.0  0.18593 -0.270565 0.0  0.187596 -0.230511 0.0  0.190695 -0.181272 0.0  0.19498 -0.124763 0.0  0.20093 -0.0620205 0.0  0.208887 0.00770552 0.0  0.220187 0.0858682 0.0  0.22438 0.163373 0.0  0.302412 -0.0120966 0.0  0.29543 0.0261477 0.0
            </DataArray>
            <DataArray type="Float64" Name="Displacement" NumberOfComponents="3" format="ascii">
               2.15599e-05 4.64829e-08 0.0  -2.15599e-05 -4.64829e-08 0.0  4.30533e-05 3.08928e-05 0.0  4.29205e-05 9.24923e-05 0.0  4.27877e-05 0.000154092 0.0  4.26549e-05 0.000215692 0.0  4.25221e-05 0.000277291 0.0  4.23893e-05 0.000338891 0.0  4.22565e-05 0.00040049 0.0  4.21236e-05 0.00046209 0.0  4.19908e-05 0.000523689 0.0  4.1858e-05 0.000585289 0.0  4.17252e-05 0.000646889 0.0  4.15924e-05 0.000708488 0.0  4.14596e-05 0.000770088 0.0  4.13268e-05 0.000831687 0.0  -4.31861e-05 3.07068e-05 0.0  -4.33189e-05 9.23064e-05 0.0  -4.34517e-05 0.000153906 0.0  -4.35845e-05 0.000215506 0.0  -4.37173e-05 0.000277105 0.0  -4.38502e-05 0.000338705 0.0  -4.3983e-05 0.000400304 0.0  -4.41158e-05 0.000461904 0.0  -4.42486e-05 0.000523503 0.0  -4.43814e-05 0.000585103 0.0  -4.45142e-05 0.000646703 0.0  -4.4647e-05 0.000708302 0.0  -4.47798e-05 0.000769902 0.0  -4.49126e-05 0.000831501 0.0  1.97005e-05 0.000862441 0.0  -2.34192e-05 0.000862348 0.0
            </DataArray>
         </PointData>
      </Piece>
   </UnstructuredGrid>
</VTKFile>
