<?xml version="1.0"?>
<VTKFile type="UnstructuredGrid" version="0.1" byte_order="LittleEndian">
   <UnstructuredGrid>
      <Piece NumberOfPoints="32" NumberOfCells="0" >
         <Points>
            <DataArray type="Float64" Name="Position" NumberOfComponents="3" format="ascii">
               0  -0.005  0
               0  0.005  0
               0.00714286  -0.01  0
               0.0214286  -0.01  0
               0.0357143  -0.01  0
               0.05  -0.01  0
               0.0642857  -0.01  0
               0.0785714  -0.01  0
               0.0928571  -0.01  0
               0.107143  -0.01  0
               0.121429  -0.01  0
               0.135714  -0.01  0
               0.15  -0.01  0
               0.164286  -0.01  0
               0.178571  -0.01  0
               0.192857  -0.01  0
               0.00714286  0.01  0
               0.0214286  0.01  0
               0.0357143  0.01  0
               0.05  0.01  0
               0.0642857  0.01  0
               0.0785714  0.01  0
               0.0928571  0.01  0
               0.107143  0.01  0
               0.121429  0.01  0
               0.135714  0.01  0
               0.15  0.01  0
               0.164286  0.01  0
               0.178571  0.01  0
               0.192857  0.01  0
               0.2  -0.005  0
               0.2  0.005  0
            </DataArray>
         </Points>

         <Cells>
            <DataArray type="Int32" Name="connectivity" NumberOfComponents="1" format="ascii">

            </DataArray>
            <DataArray type="Int32" Name="offsets" NumberOfComponents="1" format="ascii">

            </DataArray>
            <DataArray type="UInt8"  Name="types" NumberOfComponents="1" format="ascii">

            </DataArray>
         </Cells>
         <PointData Scalars="Rank " Vectors="Force Displacement ">
            <DataArray type="UInt32" Name="Rank" NumberOfComponents="1" format="ascii">
               0 0 0 0 0 0 0 0 0 0 0 0 0 0 0 0 0 0 0 0 0 0 0 0 0 0 0 0 0 0 0 0
            </DataArray>
            <DataArray type="Float64" Name="Force" NumberOfComponents="3" format="ascii">
               2.0484 0.0220386 0.0  2.12216 -0.0180037 0.0  0.423428 -0.164957 0.0  0.289219 -0.219285 0.0  0.204469 -0.010297 0.0  0.182581 0.125431 0.0  0.174569 0.180193 0.0  0.172232 0.211179 0.0  0.171947 0.225442 0.0  0.172086 0.220568 0.0  0.173749 0.197172 0.0  0.175501 0.15999 0.0  0.17804 0.11059 0.0  0.18222 0.0472621 0.0  0.188578 -0.0333334 0.0  0.186357 -0.126802 0.0  0.45201 -0.560436 0.0  0.32871 -0.439848 0.0  0.246792 -0.47544 0.0  0.21288 -0.445243 0.0  0.195046 -0.387389 0.0  0.187087 -0.336638 0.0  0.186357 -0.288226 0.0  0.189201 -0.235266 0.0  0.194149 -0.175054 0.0  0.200789 -0.109796 0.0  0.209172 -0.0397927 0.0  0.219909 0.0352116 0.0  0.236346 0.114861 0.0  0.247015 0.190587 0.0  0.289768 0.00725713 0.0  0.303592 0.041334 0.0
            </DataArray>
            <DataArray type="Float64" Name="Displacement" NumberOfComponents="3" format="ascii">
               6.75299e-05 4.5605e-07 0.0  -6.75299e-05 -4.5605e-07 0.0  0.000134408 9.73834e-05 0.0  0.000133105 0.000290326 0.0  0.000131802 0.000483269 0.0  0.000130499 0.000676211 0.0  0.000129196 0.000869154 0.0  0.000127893 0.0010621 0.0  0.00012659 0.00125504 0.0  0.000125287 0.00144798 0.0  0.000123984 0.00164092 0.0  0.000122681 0.00183387 0.0  0.000121378 0.00202681 0.0  0.000120075 0.00221975 0.0  0.000118772 0.00241269 0.0  0.000117469 0.00260564 0.0  -0.000135711 9.55592e-05 0.0  -0.000137014 0.000288502 0.0  -0.000138317 0.000481444 0.0  -0.00013962 0.000674387 0.0  -0.000140923 0.00086733 0.0  -0.000142226 0.00106027 0.0  -0.000143529 0.00125321 0.0  -0.000144832 0.00144616 0.0  -0.000146135 0.0016391 0.0  -0.000147438 0.00183204 0.0  -0.000148741 0.00202499 0.0  -0.000150044 0.00221793 0.0  -0.000151347 0.00241087 0.0  -0.00015265 0.00260381 0.0  4.92879e-05 0.00270165 0.0  -8.57719e-05 0.00270074 0.0
            </DataArray>
         </PointData>
      </Piece>
   </UnstructuredGrid>
</VTKFile>
