<?xml version="1.0"?>
<VTKFile type="UnstructuredGrid" version="0.1" byte_order="LittleEndian">
   <UnstructuredGrid>
      <Piece NumberOfPoints="32" NumberOfCells="0" >
         <Points>
            <DataArray type="Float64" Name="Position" NumberOfComponents="3" format="ascii">
               0  -0.005  0
               0  0.005  0
               0.00714286  -0.01  0
               0.0214286  -0.01  0
               0.0357143  -0.01  0
               0.05  -0.01  0
               0.0642857  -0.01  0
               0.0785714  -0.01  0
               0.0928571  -0.01  0
               0.107143  -0.01  0
               0.121429  -0.01  0
               0.135714  -0.01  0
               0.15  -0.01  0
               0.164286  -0.01  0
               0.178571  -0.01  0
               0.192857  -0.01  0
               0.00714286  0.01  0
               0.0214286  0.01  0
               0.0357143  0.01  0
               0.05  0.01  0
               0.0642857  0.01  0
               0.0785714  0.01  0
               0.0928571  0.01  0
               0.107143  0.01  0
               0.121429  0.01  0
               0.135714  0.01  0
               0.15  0.01  0
               0.164286  0.01  0
               0.178571  0.01  0
               0.192857  0.01  0
               0.2  -0.005  0
               0.2  0.005  0
            </DataArray>
         </Points>

         <Cells>
            <DataArray type="Int32" Name="connectivity" NumberOfComponents="1" format="ascii">

            </DataArray>
            <DataArray type="Int32" Name="offsets" NumberOfComponents="1" format="ascii">

            </DataArray>
            <DataArray type="UInt8"  Name="types" NumberOfComponents="1" format="ascii">

            </DataArray>
         </Cells>
         <PointData Scalars="Rank " Vectors="Force Displacement ">
            <DataArray type="UInt32" Name="Rank" NumberOfComponents="1" format="ascii">
               0 0 0 0 0 0 0 0 0 0 0 0 0 0 0 0 0 0 0 0 0 0 0 0 0 0 0 0 0 0 0 0
            </DataArray>
            <DataArray type="Float64" Name="Force" NumberOfComponents="3" format="ascii">
               2.09856 0.0124593 0.0  2.09291 -0.0353974 0.0  0.441976 0.21377 0.0  0.30631 0.106193 0.0  0.223277 0.185382 0.0  0.196217 0.218111 0.0  0.183135 0.211442 0.0  0.17703 0.195384 0.0  0.176521 0.172333 0.0  0.178706 0.139829 0.0  0.181851 0.0976342 0.0  0.185812 0.0497524 0.0  0.191221 -0.00177137 0.0  0.198412 -0.0564234 0.0  0.208863 -0.115321 0.0  0.211382 -0.170027 0.0  0.443649 -0.250904 0.0  0.308589 -0.149377 0.0  0.226057 -0.259557 0.0  0.198015 -0.309096 0.0  0.182713 -0.317214 0.0  0.178027 -0.330805 0.0  0.177471 -0.326232 0.0  0.180418 -0.302597 0.0  0.184224 -0.262427 0.0  0.188555 -0.208771 0.0  0.194035 -0.141688 0.0  0.201525 -0.0600347 0.0  0.212032 0.0389282 0.0  0.21699 0.146807 0.0  0.259626 -0.0188333 0.0  0.323269 0.0149881 0.0
            </DataArray>
            <DataArray type="Float64" Name="Displacement" NumberOfComponents="3" format="ascii">
               -3.08201e-05 9.4989e-08 0.0  3.08201e-05 -9.4989e-08 0.0  -6.1776e-05 -4.38388e-05 0.0  -6.20474e-05 -0.000131896 0.0  -6.23188e-05 -0.000219954 0.0  -6.25902e-05 -0.000308011 0.0  -6.28616e-05 -0.000396069 0.0  -6.3133e-05 -0.000484126 0.0  -6.34044e-05 -0.000572184 0.0  -6.36757e-05 -0.000660241 0.0  -6.39471e-05 -0.000748299 0.0  -6.42185e-05 -0.000836357 0.0  -6.44899e-05 -0.000924414 0.0  -6.47613e-05 -0.00101247 0.0  -6.50327e-05 -0.00110053 0.0  -6.53041e-05 -0.00118859 0.0  6.15046e-05 -4.42187e-05 0.0  6.12332e-05 -0.000132276 0.0  6.09618e-05 -0.000220334 0.0  6.06904e-05 -0.000308391 0.0  6.0419e-05 -0.000396449 0.0  6.01476e-05 -0.000484506 0.0  5.98762e-05 -0.000572564 0.0  5.96048e-05 -0.000660621 0.0  5.93334e-05 -0.000748679 0.0  5.9062e-05 -0.000836736 0.0  5.87906e-05 -0.000924794 0.0  5.85192e-05 -0.00101285 0.0  5.82478e-05 -0.00110091 0.0  5.79764e-05 -0.00118897 0.0  -3.46197e-05 -0.00123271 0.0  2.70206e-05 -0.0012329 0.0
            </DataArray>
         </PointData>
      </Piece>
   </UnstructuredGrid>
</VTKFile>
