<?xml version="1.0"?>
<VTKFile type="UnstructuredGrid" version="0.1" byte_order="LittleEndian">
   <UnstructuredGrid>
      <Piece NumberOfPoints="32" NumberOfCells="0" >
         <Points>
            <DataArray type="Float64" Name="Position" NumberOfComponents="3" format="ascii">
               0  -0.005  0
               0  0.005  0
               0.00714286  -0.01  0
               0.0214286  -0.01  0
               0.0357143  -0.01  0
               0.05  -0.01  0
               0.0642857  -0.01  0
               0.0785714  -0.01  0
               0.0928571  -0.01  0
               0.107143  -0.01  0
               0.121429  -0.01  0
               0.135714  -0.01  0
               0.15  -0.01  0
               0.164286  -0.01  0
               0.178571  -0.01  0
               0.192857  -0.01  0
               0.00714286  0.01  0
               0.0214286  0.01  0
               0.0357143  0.01  0
               0.05  0.01  0
               0.0642857  0.01  0
               0.0785714  0.01  0
               0.0928571  0.01  0
               0.107143  0.01  0
               0.121429  0.01  0
               0.135714  0.01  0
               0.15  0.01  0
               0.164286  0.01  0
               0.178571  0.01  0
               0.192857  0.01  0
               0.2  -0.005  0
               0.2  0.005  0
            </DataArray>
         </Points>

         <Cells>
            <DataArray type="Int32" Name="connectivity" NumberOfComponents="1" format="ascii">

            </DataArray>
            <DataArray type="Int32" Name="offsets" NumberOfComponents="1" format="ascii">

            </DataArray>
            <DataArray type="UInt8"  Name="types" NumberOfComponents="1" format="ascii">

            </DataArray>
         </Cells>
         <PointData Scalars="Rank " Vectors="Force Displacement ">
            <DataArray type="UInt32" Name="Rank" NumberOfComponents="1" format="ascii">
               0 0 0 0 0 0 0 0 0 0 0 0 0 0 0 0 0 0 0 0 0 0 0 0 0 0 0 0 0 0 0 0
            </DataArray>
            <DataArray type="Float64" Name="Force" NumberOfComponents="3" format="ascii">
               2.09904 0.0138881 0.0  2.08897 -0.0341801 0.0  0.439882 0.245001 0.0  0.302261 0.139228 0.0  0.219083 0.216569 0.0  0.192194 0.249143 0.0  0.179094 0.243254 0.0  0.174063 0.228247 0.0  0.175014 0.206317 0.0  0.178282 0.172383 0.0  0.182757 0.128293 0.0  0.188212 0.077666 0.0  0.195331 0.0219494 0.0  0.204658 -0.039457 0.0  0.217965 -0.10752 0.0  0.223736 -0.173637 0.0  0.446418 -0.216398 0.0  0.313012 -0.110976 0.0  0.230951 -0.215159 0.0  0.200704 -0.261007 0.0  0.18595 -0.275871 0.0  0.181348 -0.293474 0.0  0.18034 -0.288747 0.0  0.181742 -0.265218 0.0  0.183877 -0.226374 0.0  0.186584 -0.175478 0.0  0.190334 -0.113059 0.0  0.195758 -0.0380883 0.0  0.203998 0.0520039 0.0  0.20623 0.149202 0.0  0.284638 -0.0283774 0.0  0.307316 0.00882272 0.0
            </DataArray>
            <DataArray type="Float64" Name="Displacement" NumberOfComponents="3" format="ascii">
               -3.48141e-05 1.21204e-07 0.0  3.48141e-05 -1.21204e-07 0.0  -6.98014e-05 -4.94921e-05 0.0  -7.01477e-05 -0.000148961 0.0  -7.0494e-05 -0.00024843 0.0  -7.08403e-05 -0.000347899 0.0  -7.11866e-05 -0.000447368 0.0  -7.15329e-05 -0.000546837 0.0  -7.18792e-05 -0.000646306 0.0  -7.22255e-05 -0.000745775 0.0  -7.25718e-05 -0.000845244 0.0  -7.29181e-05 -0.000944713 0.0  -7.32644e-05 -0.00104418 0.0  -7.36107e-05 -0.00114365 0.0  -7.3957e-05 -0.00124312 0.0  -7.43033e-05 -0.00134259 0.0  6.94552e-05 -4.99769e-05 0.0  6.91089e-05 -0.000149446 0.0  6.87626e-05 -0.000248915 0.0  6.84163e-05 -0.000348384 0.0  6.807e-05 -0.000447853 0.0  6.77237e-05 -0.000547322 0.0  6.73774e-05 -0.000646791 0.0  6.70311e-05 -0.00074626 0.0  6.66848e-05 -0.000845729 0.0  6.63385e-05 -0.000945198 0.0  6.59922e-05 -0.00104467 0.0  6.56459e-05 -0.00114414 0.0  6.52996e-05 -0.0012436 0.0  6.49533e-05 -0.00134307 0.0  -3.96623e-05 -0.00139244 0.0  2.9966e-05 -0.00139269 0.0
            </DataArray>
         </PointData>
      </Piece>
   </UnstructuredGrid>
</VTKFile>
