<?xml version="1.0"?>
<VTKFile type="UnstructuredGrid" version="0.1" byte_order="LittleEndian">
   <UnstructuredGrid>
      <Piece NumberOfPoints="32" NumberOfCells="0" >
         <Points>
            <DataArray type="Float64" Name="Position" NumberOfComponents="3" format="ascii">
               0  -0.005  0
               0  0.005  0
               0.00714286  -0.01  0
               0.0214286  -0.01  0
               0.0357143  -0.01  0
               0.05  -0.01  0
               0.0642857  -0.01  0
               0.0785714  -0.01  0
               0.0928571  -0.01  0
               0.107143  -0.01  0
               0.121429  -0.01  0
               0.135714  -0.01  0
               0.15  -0.01  0
               0.164286  -0.01  0
               0.178571  -0.01  0
               0.192857  -0.01  0
               0.00714286  0.01  0
               0.0214286  0.01  0
               0.0357143  0.01  0
               0.05  0.01  0
               0.0642857  0.01  0
               0.0785714  0.01  0
               0.0928571  0.01  0
               0.107143  0.01  0
               0.121429  0.01  0
               0.135714  0.01  0
               0.15  0.01  0
               0.164286  0.01  0
               0.178571  0.01  0
               0.192857  0.01  0
               0.2  -0.005  0
               0.2  0.005  0
            </DataArray>
         </Points>

         <Cells>
            <DataArray type="Int32" Name="connectivity" NumberOfComponents="1" format="ascii">

            </DataArray>
            <DataArray type="Int32" Name="offsets" NumberOfComponents="1" format="ascii">

            </DataArray>
            <DataArray type="UInt8"  Name="types" NumberOfComponents="1" format="ascii">

            </DataArray>
         </Cells>
         <PointData Scalars="Rank " Vectors="Force Displacement ">
            <DataArray type="UInt32" Name="Rank" NumberOfComponents="1" format="ascii">
               0 0 0 0 0 0 0 0 0 0 0 0 0 0 0 0 0 0 0 0 0 0 0 0 0 0 0 0 0 0 0 0
            </DataArray>
            <DataArray type="Float64" Name="Force" NumberOfComponents="3" format="ascii">
               2.13136 0.00181504 0.0  2.0434 -0.0382414 0.0  0.453092 0.568727 0.0  0.333858 0.455099 0.0  0.255694 0.505964 0.0  0.226012 0.503471 0.0  0.209389 0.469552 0.0  0.201042 0.434351 0.0  0.197783 0.39523 0.0  0.197751 0.347347 0.0  0.199591 0.290284 0.0  0.202804 0.224777 0.0  0.207603 0.150635 0.0  0.214397 0.0659341 0.0  0.225962 -0.0316472 0.0  0.230733 -0.138646 0.0  0.429171 0.173786 0.0  0.287704 0.237659 0.0  0.198915 0.052739 0.0  0.176588 -0.0537619 0.0  0.166178 -0.0832948 0.0  0.163861 -0.100186 0.0  0.165246 -0.105956 0.0  0.168453 -0.0954341 0.0  0.172519 -0.0701716 0.0  0.177209 -0.0342799 0.0  0.182746 0.0103794 0.0  0.189687 0.0634279 0.0  0.198356 0.125469 0.0  0.199709 0.182265 0.0  0.307654 -0.0266493 0.0  0.302803 0.0113245 0.0
            </DataArray>
            <DataArray type="Float64" Name="Displacement" NumberOfComponents="3" format="ascii">
               -0.000109731 1.20423e-06 0.0  0.000109731 -1.20423e-06 0.0  -0.000221182 -0.00015435 0.0  -0.000224622 -0.000467866 0.0  -0.000228063 -0.000781382 0.0  -0.000231504 -0.0010949 0.0  -0.000234944 -0.00140841 0.0  -0.000238385 -0.00172193 0.0  -0.000241826 -0.00203545 0.0  -0.000245266 -0.00234896 0.0  -0.000248707 -0.00266248 0.0  -0.000252148 -0.002976 0.0  -0.000255588 -0.00328951 0.0  -0.000259029 -0.00360303 0.0  -0.000262469 -0.00391654 0.0  -0.00026591 -0.00423006 0.0  0.000217741 -0.000159167 0.0  0.0002143 -0.000472683 0.0  0.00021086 -0.000786199 0.0  0.000207419 -0.00109972 0.0  0.000203978 -0.00141323 0.0  0.000200538 -0.00172675 0.0  0.000197097 -0.00204026 0.0  0.000193656 -0.00235378 0.0  0.000190216 -0.0026673 0.0  0.000186775 -0.00298081 0.0  0.000183335 -0.00329433 0.0  0.000179894 -0.00360784 0.0  0.000176453 -0.00392136 0.0  0.000173013 -0.00423488 0.0  -0.0001579 -0.00438802 0.0  6.15616e-05 -0.00439043 0.0
            </DataArray>
         </PointData>
      </Piece>
   </UnstructuredGrid>
</VTKFile>
