<?xml version="1.0"?>
<VTKFile type="UnstructuredGrid" version="0.1" byte_order="LittleEndian">
   <UnstructuredGrid>
      <Piece NumberOfPoints="32" NumberOfCells="0" >
         <Points>
            <DataArray type="Float64" Name="Position" NumberOfComponents="3" format="ascii">
               0  -0.005  0
               0  0.005  0
               0.00714286  -0.01  0
               0.0214286  -0.01  0
               0.0357143  -0.01  0
               0.05  -0.01  0
               0.0642857  -0.01  0
               0.0785714  -0.01  0
               0.0928571  -0.01  0
               0.107143  -0.01  0
               0.121429  -0.01  0
               0.135714  -0.01  0
               0.15  -0.01  0
               0.164286  -0.01  0
               0.178571  -0.01  0
               0.192857  -0.01  0
               0.00714286  0.01  0
               0.0214286  0.01  0
               0.0357143  0.01  0
               0.05  0.01  0
               0.0642857  0.01  0
               0.0785714  0.01  0
               0.0928571  0.01  0
               0.107143  0.01  0
               0.121429  0.01  0
               0.135714  0.01  0
               0.15  0.01  0
               0.164286  0.01  0
               0.178571  0.01  0
               0.192857  0.01  0
               0.2  -0.005  0
               0.2  0.005  0
            </DataArray>
         </Points>

         <Cells>
            <DataArray type="Int32" Name="connectivity" NumberOfComponents="1" format="ascii">

            </DataArray>
            <DataArray type="Int32" Name="offsets" NumberOfComponents="1" format="ascii">

            </DataArray>
            <DataArray type="UInt8"  Name="types" NumberOfComponents="1" format="ascii">

            </DataArray>
         </Cells>
         <PointData Scalars="Rank " Vectors="Force Displacement ">
            <DataArray type="UInt32" Name="Rank" NumberOfComponents="1" format="ascii">
               0 0 0 0 0 0 0 0 0 0 0 0 0 0 0 0 0 0 0 0 0 0 0 0 0 0 0 0 0 0 0 0
            </DataArray>
            <DataArray type="Float64" Name="Force" NumberOfComponents="3" format="ascii">
               2.06167 0.028826 0.0  2.11465 -0.0154771 0.0  0.417288 -0.0159965 0.0  0.275116 -0.0671991 0.0  0.188842 0.122768 0.0  0.167526 0.241934 0.0  0.159093 0.285876 0.0  0.158724 0.314637 0.0  0.163235 0.330372 0.0  0.167018 0.323711 0.0  0.173932 0.292392 0.0  0.181094 0.241268 0.0  0.189153 0.173666 0.0  0.199512 0.0869244 0.0  0.213687 -0.0227613 0.0  0.221328 -0.149708 0.0  0.458913 -0.428745 0.0  0.33912 -0.297235 0.0  0.259124 -0.341516 0.0  0.226981 -0.32362 0.0  0.208593 -0.272128 0.0  0.198049 -0.222611 0.0  0.192543 -0.174479 0.0  0.190725 -0.124311 0.0  0.19088 -0.0733479 0.0  0.192424 -0.0220905 0.0  0.195424 0.0282059 0.0  0.199841 0.0767675 0.0  0.207318 0.123786 0.0  0.206508 0.164217 0.0  0.354977 -0.0103474 0.0  0.238752 0.0148919 0.0
            </DataArray>
            <DataArray type="Float64" Name="Displacement" NumberOfComponents="3" format="ascii">
               4.85629e-05 2.35841e-07 0.0  -4.85629e-05 -2.35841e-07 0.0  9.67889e-05 6.98473e-05 0.0  9.61151e-05 0.000208598 0.0  9.54412e-05 0.00034735 0.0  9.47674e-05 0.000486101 0.0  9.40936e-05 0.000624852 0.0  9.34197e-05 0.000763603 0.0  9.27459e-05 0.000902354 0.0  9.20721e-05 0.00104111 0.0  9.13982e-05 0.00117986 0.0  9.07244e-05 0.00131861 0.0  9.00506e-05 0.00145736 0.0  8.93767e-05 0.00159611 0.0  8.87029e-05 0.00173486 0.0  8.80291e-05 0.00187361 0.0  -9.74627e-05 6.89039e-05 0.0  -9.81365e-05 0.000207655 0.0  -9.88104e-05 0.000346406 0.0  -9.94842e-05 0.000485157 0.0  -0.000100158 0.000623908 0.0  -0.000100832 0.00076266 0.0  -0.000101506 0.000901411 0.0  -0.00010218 0.00104016 0.0  -0.000102853 0.00117891 0.0  -0.000103527 0.00131766 0.0  -0.000104201 0.00145642 0.0  -0.000104875 0.00159517 0.0  -0.000105549 0.00173392 0.0  -0.000106223 0.00187267 0.0  3.91293e-05 0.00194275 0.0  -5.79965e-05 0.00194228 0.0
            </DataArray>
         </PointData>
      </Piece>
   </UnstructuredGrid>
</VTKFile>
