<?xml version="1.0"?>
<VTKFile type="UnstructuredGrid" version="0.1" byte_order="LittleEndian">
   <UnstructuredGrid>
      <Piece NumberOfPoints="32" NumberOfCells="0" >
         <Points>
            <DataArray type="Float64" Name="Position" NumberOfComponents="3" format="ascii">
               0  -0.005  0
               0  0.005  0
               0.00714286  -0.01  0
               0.0214286  -0.01  0
               0.0357143  -0.01  0
               0.05  -0.01  0
               0.0642857  -0.01  0
               0.0785714  -0.01  0
               0.0928571  -0.01  0
               0.107143  -0.01  0
               0.121429  -0.01  0
               0.135714  -0.01  0
               0.15  -0.01  0
               0.164286  -0.01  0
               0.178571  -0.01  0
               0.192857  -0.01  0
               0.00714286  0.01  0
               0.0214286  0.01  0
               0.0357143  0.01  0
               0.05  0.01  0
               0.0642857  0.01  0
               0.0785714  0.01  0
               0.0928571  0.01  0
               0.107143  0.01  0
               0.121429  0.01  0
               0.135714  0.01  0
               0.15  0.01  0
               0.164286  0.01  0
               0.178571  0.01  0
               0.192857  0.01  0
               0.2  -0.005  0
               0.2  0.005  0
            </DataArray>
         </Points>

         <Cells>
            <DataArray type="Int32" Name="connectivity" NumberOfComponents="1" format="ascii">

            </DataArray>
            <DataArray type="Int32" Name="offsets" NumberOfComponents="1" format="ascii">

            </DataArray>
            <DataArray type="UInt8"  Name="types" NumberOfComponents="1" format="ascii">

            </DataArray>
         </Cells>
         <PointData Scalars="Rank " Vectors="Force Displacement ">
            <DataArray type="UInt32" Name="Rank" NumberOfComponents="1" format="ascii">
               0 0 0 0 0 0 0 0 0 0 0 0 0 0 0 0 0 0 0 0 0 0 0 0 0 0 0 0 0 0 0 0
            </DataArray>
            <DataArray type="Float64" Name="Force" NumberOfComponents="3" format="ascii">
               2.03179 0.0237937 0.0  2.13133 -0.0112115 0.0  0.415501 -0.283143 0.0  0.272046 -0.321806 0.0  0.185011 -0.111319 0.0  0.163593 0.011825 0.0  0.155061 0.0536257 0.0  0.154028 0.0781963 0.0  0.156085 0.0898231 0.0  0.159536 0.0845093 0.0  0.164511 0.0638814 0.0  0.169892 0.0319274 0.0  0.175945 -0.00907901 0.0  0.183331 -0.0590951 0.0  0.192421 -0.118816 0.0  0.194659 -0.175009 0.0  0.460906 -0.653438 0.0  0.347233 -0.52492 0.0  0.26856 -0.559515 0.0  0.236414 -0.542003 0.0  0.218709 -0.496575 0.0  0.209201 -0.452661 0.0  0.204866 -0.407307 0.0  0.204041 -0.3549 0.0  0.205348 -0.294082 0.0  0.208158 -0.225402 0.0  0.212688 -0.148587 0.0  0.219156 -0.0616622 0.0  0.230298 0.0374948 0.0  0.234799 0.144687 0.0  0.285164 -0.00870892 0.0  0.309767 0.0294665 0.0
            </DataArray>
            <DataArray type="Float64" Name="Displacement" NumberOfComponents="3" format="ascii">
               8.7124e-05 7.59117e-07 0.0  -8.7124e-05 -7.59117e-07 0.0  0.000173164 0.000125981 0.0  0.000170995 0.000374907 0.0  0.000168826 0.000623833 0.0  0.000166657 0.000872759 0.0  0.000164488 0.00112168 0.0  0.000162319 0.00137061 0.0  0.00016015 0.00161954 0.0  0.000157981 0.00186846 0.0  0.000155812 0.00211739 0.0  0.000153643 0.00236631 0.0  0.000151475 0.00261524 0.0  0.000149306 0.00286417 0.0  0.000147137 0.00311309 0.0  0.000144968 0.00336202 0.0  -0.000175333 0.000122945 0.0  -0.000177501 0.00037187 0.0  -0.00017967 0.000620796 0.0  -0.000181839 0.000869722 0.0  -0.000184008 0.00111865 0.0  -0.000186177 0.00136757 0.0  -0.000188346 0.0016165 0.0  -0.000190515 0.00186543 0.0  -0.000192684 0.00211435 0.0  -0.000194853 0.00236328 0.0  -0.000197022 0.0026122 0.0  -0.00019919 0.00286113 0.0  -0.000201359 0.00311005 0.0  -0.000203528 0.00335898 0.0  5.67593e-05 0.00348572 0.0  -0.000117489 0.0034842 0.0
            </DataArray>
         </PointData>
      </Piece>
   </UnstructuredGrid>
</VTKFile>
