<?xml version="1.0"?>
<VTKFile type="UnstructuredGrid" version="0.1" byte_order="LittleEndian">
   <UnstructuredGrid>
      <Piece NumberOfPoints="32" NumberOfCells="0" >
         <Points>
            <DataArray type="Float64" Name="Position" NumberOfComponents="3" format="ascii">
               0  -0.005  0
               0  0.005  0
               0.00714286  -0.01  0
               0.0214286  -0.01  0
               0.0357143  -0.01  0
               0.05  -0.01  0
               0.0642857  -0.01  0
               0.0785714  -0.01  0
               0.0928571  -0.01  0
               0.107143  -0.01  0
               0.121429  -0.01  0
               0.135714  -0.01  0
               0.15  -0.01  0
               0.164286  -0.01  0
               0.178571  -0.01  0
               0.192857  -0.01  0
               0.00714286  0.01  0
               0.0214286  0.01  0
               0.0357143  0.01  0
               0.05  0.01  0
               0.0642857  0.01  0
               0.0785714  0.01  0
               0.0928571  0.01  0
               0.107143  0.01  0
               0.121429  0.01  0
               0.135714  0.01  0
               0.15  0.01  0
               0.164286  0.01  0
               0.178571  0.01  0
               0.192857  0.01  0
               0.2  -0.005  0
               0.2  0.005  0
            </DataArray>
         </Points>

         <Cells>
            <DataArray type="Int32" Name="connectivity" NumberOfComponents="1" format="ascii">

            </DataArray>
            <DataArray type="Int32" Name="offsets" NumberOfComponents="1" format="ascii">

            </DataArray>
            <DataArray type="UInt8"  Name="types" NumberOfComponents="1" format="ascii">

            </DataArray>
         </Cells>
         <PointData Scalars="Rank " Vectors="Force Displacement ">
            <DataArray type="UInt32" Name="Rank" NumberOfComponents="1" format="ascii">
               0 0 0 0 0 0 0 0 0 0 0 0 0 0 0 0 0 0 0 0 0 0 0 0 0 0 0 0 0 0 0 0
            </DataArray>
            <DataArray type="Float64" Name="Force" NumberOfComponents="3" format="ascii">
               2.07326 0.0174593 0.0  2.10515 -0.0284997 0.0  0.433723 0.0366696 0.0  0.298701 -0.048256 0.0  0.21728 0.0927787 0.0  0.194288 0.16204 0.0  0.179808 0.165697 0.0  0.17379 0.178434 0.0  0.173508 0.177827 0.0  0.175072 0.158841 0.0  0.177253 0.126018 0.0  0.179722 0.0839005 0.0  0.18307 0.0337947 0.0  0.187797 -0.0245647 0.0  0.194583 -0.0924039 0.0  0.194156 -0.160807 0.0  0.446236 -0.400551 0.0  0.31329 -0.288486 0.0  0.230213 -0.359449 0.0  0.201577 -0.379143 0.0  0.18753 -0.365683 0.0  0.181901 -0.346895 0.0  0.182293 -0.321717 0.0  0.185566 -0.284809 0.0  0.190338 -0.235415 0.0  0.196229 -0.175818 0.0  0.203733 -0.106787 0.0  0.213554 -0.0273247 0.0  0.226642 0.0648634 0.0  0.234843 0.160132 0.0  0.263329 -0.00542896 0.0  0.310992 0.0303798 0.0
            </DataArray>
            <DataArray type="Float64" Name="Displacement" NumberOfComponents="3" format="ascii">
               1.49355e-05 2.23071e-08 0.0  -1.49355e-05 -2.23071e-08 0.0  2.98392e-05 2.13811e-05 0.0  2.97755e-05 6.40541e-05 0.0  2.97118e-05 0.000106727 0.0  2.9648e-05 0.0001494 0.0  2.95843e-05 0.000192073 0.0  2.95206e-05 0.000234746 0.0  2.94568e-05 0.000277419 0.0  2.93931e-05 0.000320092 0.0  2.93294e-05 0.000362765 0.0  2.92656e-05 0.000405438 0.0  2.92019e-05 0.000448111 0.0  2.91382e-05 0.000490784 0.0  2.90744e-05 0.000533457 0.0  2.90107e-05 0.00057613 0.0  -2.9903e-05 2.12919e-05 0.0  -2.99667e-05 6.39649e-05 0.0  -3.00304e-05 0.000106638 0.0  -3.00942e-05 0.000149311 0.0  -3.01579e-05 0.000191984 0.0  -3.02216e-05 0.000234657 0.0  -3.02854e-05 0.00027733 0.0  -3.03491e-05 0.000320003 0.0  -3.04128e-05 0.000362676 0.0  -3.04766e-05 0.000405349 0.0  -3.05403e-05 0.000448022 0.0  -3.0604e-05 0.000490695 0.0  -3.06678e-05 0.000533368 0.0  -3.07315e-05 0.000576041 0.0  1.40433e-05 0.000597444 0.0  -1.58278e-05 0.0005974 0.0
            </DataArray>
         </PointData>
      </Piece>
   </UnstructuredGrid>
</VTKFile>
