<?xml version="1.0"?>
<VTKFile type="UnstructuredGrid" version="0.1" byte_order="LittleEndian">
   <UnstructuredGrid>
      <Piece NumberOfPoints="32" NumberOfCells="0" >
         <Points>
            <DataArray type="Float64" Name="Position" NumberOfComponents="3" format="ascii">
               0  -0.005  0
               0  0.005  0
               0.00714286  -0.01  0
               0.0214286  -0.01  0
               0.0357143  -0.01  0
               0.05  -0.01  0
               0.0642857  -0.01  0
               0.0785714  -0.01  0
               0.0928571  -0.01  0
               0.107143  -0.01  0
               0.121429  -0.01  0
               0.135714  -0.01  0
               0.15  -0.01  0
               0.164286  -0.01  0
               0.178571  -0.01  0
               0.192857  -0.01  0
               0.00714286  0.01  0
               0.0214286  0.01  0
               0.0357143  0.01  0
               0.05  0.01  0
               0.0642857  0.01  0
               0.0785714  0.01  0
               0.0928571  0.01  0
               0.107143  0.01  0
               0.121429  0.01  0
               0.135714  0.01  0
               0.15  0.01  0
               0.164286  0.01  0
               0.178571  0.01  0
               0.192857  0.01  0
               0.2  -0.005  0
               0.2  0.005  0
            </DataArray>
         </Points>

         <Cells>
            <DataArray type="Int32" Name="connectivity" NumberOfComponents="1" format="ascii">

            </DataArray>
            <DataArray type="Int32" Name="offsets" NumberOfComponents="1" format="ascii">

            </DataArray>
            <DataArray type="UInt8"  Name="types" NumberOfComponents="1" format="ascii">

            </DataArray>
         </Cells>
         <PointData Scalars="Rank " Vectors="Force Displacement ">
            <DataArray type="UInt32" Name="Rank" NumberOfComponents="1" format="ascii">
               0 0 0 0 0 0 0 0 0 0 0 0 0 0 0 0 0 0 0 0 0 0 0 0 0 0 0 0 0 0 0 0
            </DataArray>
            <DataArray type="Float64" Name="Force" NumberOfComponents="3" format="ascii">
               2.0944 0.0125255 0.0  2.09763 -0.0350318 0.0  0.441912 0.166786 0.0  0.307642 0.0607983 0.0  0.225253 0.144864 0.0  0.195924 0.182971 0.0  0.184861 0.186099 0.0  0.178558 0.174009 0.0  0.176964 0.153277 0.0  0.178348 0.123906 0.0  0.180491 0.0848762 0.0  0.183454 0.0403427 0.0  0.187339 -0.00787614 0.0  0.192831 -0.0594237 0.0  0.201145 -0.114767 0.0  0.201114 -0.165493 0.0  0.442346 -0.297758 0.0  0.306402 -0.195908 0.0  0.223927 -0.299802 0.0  0.196123 -0.346208 0.0  0.180706 -0.350026 0.0  0.176851 -0.357474 0.0  0.176801 -0.349255 0.0  0.180483 -0.323107 0.0  0.18546 -0.280893 0.0  0.191068 -0.224504 0.0  0.197969 -0.15399 0.0  0.207039 -0.0683177 0.0  0.219317 0.0353675 0.0  0.226509 0.148445 0.0  0.245304 -0.00936626 0.0  0.328844 0.0202064 0.0
            </DataArray>
            <DataArray type="Float64" Name="Displacement" NumberOfComponents="3" format="ascii">
               -2.0849e-05 4.34683e-08 0.0  2.0849e-05 -4.34683e-08 0.0  -4.17601e-05 -2.96974e-05 0.0  -4.18843e-05 -8.9266e-05 0.0  -4.20085e-05 -0.000148835 0.0  -4.21327e-05 -0.000208403 0.0  -4.22569e-05 -0.000267972 0.0  -4.23811e-05 -0.00032754 0.0  -4.25053e-05 -0.000387109 0.0  -4.26295e-05 -0.000446678 0.0  -4.27537e-05 -0.000506246 0.0  -4.28779e-05 -0.000565815 0.0  -4.30021e-05 -0.000625384 0.0  -4.31263e-05 -0.000684952 0.0  -4.32505e-05 -0.000744521 0.0  -4.33747e-05 -0.000804089 0.0  4.16359e-05 -2.98712e-05 0.0  4.15117e-05 -8.94399e-05 0.0  4.13875e-05 -0.000149008 0.0  4.12634e-05 -0.000208577 0.0  4.11392e-05 -0.000268146 0.0  4.1015e-05 -0.000327714 0.0  4.08908e-05 -0.000387283 0.0  4.07666e-05 -0.000446852 0.0  4.06424e-05 -0.00050642 0.0  4.05182e-05 -0.000565989 0.0  4.0394e-05 -0.000625557 0.0  4.02698e-05 -0.000685126 0.0  4.01456e-05 -0.000744695 0.0  4.00214e-05 -0.000804263 0.0  -2.25878e-05 -0.000833917 0.0  1.91103e-05 -0.000834004 0.0
            </DataArray>
         </PointData>
      </Piece>
   </UnstructuredGrid>
</VTKFile>
