<?xml version="1.0"?>
<VTKFile type="UnstructuredGrid" version="0.1" byte_order="LittleEndian">
   <UnstructuredGrid>
      <Piece NumberOfPoints="32" NumberOfCells="0" >
         <Points>
            <DataArray type="Float64" Name="Position" NumberOfComponents="3" format="ascii">
               0  -0.005  0
               0  0.005  0
               0.00714286  -0.01  0
               0.0214286  -0.01  0
               0.0357143  -0.01  0
               0.05  -0.01  0
               0.0642857  -0.01  0
               0.0785714  -0.01  0
               0.0928571  -0.01  0
               0.107143  -0.01  0
               0.121429  -0.01  0
               0.135714  -0.01  0
               0.15  -0.01  0
               0.164286  -0.01  0
               0.178571  -0.01  0
               0.192857  -0.01  0
               0.00714286  0.01  0
               0.0214286  0.01  0
               0.0357143  0.01  0
               0.05  0.01  0
               0.0642857  0.01  0
               0.0785714  0.01  0
               0.0928571  0.01  0
               0.107143  0.01  0
               0.121429  0.01  0
               0.135714  0.01  0
               0.15  0.01  0
               0.164286  0.01  0
               0.178571  0.01  0
               0.192857  0.01  0
               0.2  -0.005  0
               0.2  0.005  0
            </DataArray>
         </Points>

         <Cells>
            <DataArray type="Int32" Name="connectivity" NumberOfComponents="1" format="ascii">

            </DataArray>
            <DataArray type="Int32" Name="offsets" NumberOfComponents="1" format="ascii">

            </DataArray>
            <DataArray type="UInt8"  Name="types" NumberOfComponents="1" format="ascii">

            </DataArray>
         </Cells>
         <PointData Scalars="Rank " Vectors="Force Displacement ">
            <DataArray type="UInt32" Name="Rank" NumberOfComponents="1" format="ascii">
               0 0 0 0 0 0 0 0 0 0 0 0 0 0 0 0 0 0 0 0 0 0 0 0 0 0 0 0 0 0 0 0
            </DataArray>
            <DataArray type="Float64" Name="Force" NumberOfComponents="3" format="ascii">
               2.08841 0.0189415 0.0  2.09906 -0.0289351 0.0  0.43348 0.162572 0.0  0.294008 0.0709953 0.0  0.211368 0.191795 0.0  0.188302 0.250263 0.0  0.174666 0.249152 0.0  0.170931 0.247917 0.0  0.172048 0.237849 0.0  0.175691 0.212284 0.0  0.180286 0.172995 0.0  0.185587 0.123568 0.0  0.192245 0.0652321 0.0  0.200794 -0.00250456 0.0  0.212138 -0.0815713 0.0  0.217964 -0.161607 0.0  0.449597 -0.294742 0.0  0.317127 -0.178238 0.0  0.233978 -0.256952 0.0  0.203683 -0.291156 0.0  0.192523 -0.294173 0.0  0.186111 -0.283105 0.0  0.184397 -0.262763 0.0  0.185281 -0.23066 0.0  0.187406 -0.187224 0.0  0.190276 -0.135001 0.0  0.194338 -0.0747317 0.0  0.200242 -0.00564071 0.0  0.208587 0.0741986 0.0  0.21106 0.154849 0.0  0.301819 -0.0228626 0.0  0.289893 0.0150521 0.0
            </DataArray>
            <DataArray type="Float64" Name="Displacement" NumberOfComponents="3" format="ascii">
               -7.20742e-06 5.19469e-09 0.0  7.20742e-06 -5.19469e-09 0.0  -1.44223e-05 -1.02859e-05 0.0  -1.44371e-05 -3.08786e-05 0.0  -1.44519e-05 -5.14712e-05 0.0  -1.44668e-05 -7.20638e-05 0.0  -1.44816e-05 -9.26564e-05 0.0  -1.44965e-05 -0.000113249 0.0  -1.45113e-05 -0.000133842 0.0  -1.45262e-05 -0.000154434 0.0  -1.4541e-05 -0.000175027 0.0  -1.45558e-05 -0.00019562 0.0  -1.45707e-05 -0.000216212 0.0  -1.45855e-05 -0.000236805 0.0  -1.46004e-05 -0.000257397 0.0  -1.46152e-05 -0.00027799 0.0  1.44074e-05 -1.03067e-05 0.0  1.43926e-05 -3.08993e-05 0.0  1.43777e-05 -5.1492e-05 0.0  1.43629e-05 -7.20846e-05 0.0  1.43481e-05 -9.26772e-05 0.0  1.43332e-05 -0.00011327 0.0  1.43184e-05 -0.000133862 0.0  1.43035e-05 -0.000154455 0.0  1.42887e-05 -0.000175048 0.0  1.42738e-05 -0.00019564 0.0  1.4259e-05 -0.000216233 0.0  1.42442e-05 -0.000236826 0.0  1.42293e-05 -0.000257418 0.0  1.42145e-05 -0.000278011 0.0  -7.41521e-06 -0.000288292 0.0  6.99963e-06 -0.000288302 0.0
            </DataArray>
         </PointData>
      </Piece>
   </UnstructuredGrid>
</VTKFile>
