<?xml version="1.0"?>
<VTKFile type="UnstructuredGrid" version="0.1" byte_order="LittleEndian">
   <UnstructuredGrid>
      <Piece NumberOfPoints="32" NumberOfCells="0" >
         <Points>
            <DataArray type="Float64" Name="Position" NumberOfComponents="3" format="ascii">
               0  -0.005  0
               0  0.005  0
               0.00714286  -0.01  0
               0.0214286  -0.01  0
               0.0357143  -0.01  0
               0.05  -0.01  0
               0.0642857  -0.01  0
               0.0785714  -0.01  0
               0.0928571  -0.01  0
               0.107143  -0.01  0
               0.121429  -0.01  0
               0.135714  -0.01  0
               0.15  -0.01  0
               0.164286  -0.01  0
               0.178571  -0.01  0
               0.192857  -0.01  0
               0.00714286  0.01  0
               0.0214286  0.01  0
               0.0357143  0.01  0
               0.05  0.01  0
               0.0642857  0.01  0
               0.0785714  0.01  0
               0.0928571  0.01  0
               0.107143  0.01  0
               0.121429  0.01  0
               0.135714  0.01  0
               0.15  0.01  0
               0.164286  0.01  0
               0.178571  0.01  0
               0.192857  0.01  0
               0.2  -0.005  0
               0.2  0.005  0
            </DataArray>
         </Points>

         <Cells>
            <DataArray type="Int32" Name="connectivity" NumberOfComponents="1" format="ascii">

            </DataArray>
            <DataArray type="Int32" Name="offsets" NumberOfComponents="1" format="ascii">

            </DataArray>
            <DataArray type="UInt8"  Name="types" NumberOfComponents="1" format="ascii">

            </DataArray>
         </Cells>
         <PointData Scalars="Rank " Vectors="Force Displacement ">
            <DataArray type="UInt32" Name="Rank" NumberOfComponents="1" format="ascii">
               0 0 0 0 0 0 0 0 0 0 0 0 0 0 0 0 0 0 0 0 0 0 0 0 0 0 0 0 0 0 0 0
            </DataArray>
            <DataArray type="Float64" Name="Force" NumberOfComponents="3" format="ascii">
               2.03195 0.0235506 0.0  2.13045 -0.0116803 0.0  0.41582 -0.27941 0.0  0.272585 -0.319393 0.0  0.185627 -0.11062 0.0  0.164471 0.0119033 0.0  0.155889 0.0529943 0.0  0.154809 0.0769998 0.0  0.156807 0.0881972 0.0  0.160225 0.0825104 0.0  0.165105 0.0615841 0.0  0.170371 0.029466 0.0  0.176304 -0.01161 0.0  0.183565 -0.0615787 0.0  0.192511 -0.121051 0.0  0.194584 -0.176743 0.0  0.460377 -0.649744 0.0  0.34615 -0.521995 0.0  0.267383 -0.557671 0.0  0.235395 -0.541238 0.0  0.217755 -0.496651 0.0  0.208349 -0.453444 0.0  0.204142 -0.408617 0.0  0.203442 -0.356561 0.0  0.204877 -0.295996 0.0  0.207805 -0.227397 0.0  0.212431 -0.150503 0.0  0.219087 -0.0634336 0.0  0.230346 0.0361853 0.0  0.234963 0.143967 0.0  0.285253 -0.00882501 0.0  0.310365 0.0293301 0.0
            </DataArray>
            <DataArray type="Float64" Name="Displacement" NumberOfComponents="3" format="ascii">
               8.58275e-05 7.3669e-07 0.0  -8.58275e-05 -7.3669e-07 0.0  0.000170603 0.000124084 0.0  0.000168498 0.000369305 0.0  0.000166393 0.000614527 0.0  0.000164288 0.000859748 0.0  0.000162183 0.00110497 0.0  0.000160078 0.00135019 0.0  0.000157974 0.00159541 0.0  0.000155869 0.00184063 0.0  0.000153764 0.00208585 0.0  0.000151659 0.00233108 0.0  0.000149554 0.0025763 0.0  0.000147449 0.00282152 0.0  0.000145345 0.00306674 0.0  0.00014324 0.00331196 0.0  -0.000172707 0.000121137 0.0  -0.000174812 0.000366359 0.0  -0.000176917 0.00061158 0.0  -0.000179022 0.000856801 0.0  -0.000181127 0.00110202 0.0  -0.000183232 0.00134724 0.0  -0.000185336 0.00159247 0.0  -0.000187441 0.00183769 0.0  -0.000189546 0.00208291 0.0  -0.000191651 0.00232813 0.0  -0.000193756 0.00257335 0.0  -0.00019586 0.00281857 0.0  -0.000197965 0.00306379 0.0  -0.00020007 0.00330902 0.0  5.63599e-05 0.00343384 0.0  -0.000115295 0.00343236 0.0
            </DataArray>
         </PointData>
      </Piece>
   </UnstructuredGrid>
</VTKFile>
