<?xml version="1.0"?>
<VTKFile type="UnstructuredGrid" version="0.1" byte_order="LittleEndian">
   <UnstructuredGrid>
      <Piece NumberOfPoints="32" NumberOfCells="0" >
         <Points>
            <DataArray type="Float64" Name="Position" NumberOfComponents="3" format="ascii">
               0  -0.005  0
               0  0.005  0
               0.00714286  -0.01  0
               0.0214286  -0.01  0
               0.0357143  -0.01  0
               0.05  -0.01  0
               0.0642857  -0.01  0
               0.0785714  -0.01  0
               0.0928571  -0.01  0
               0.107143  -0.01  0
               0.121429  -0.01  0
               0.135714  -0.01  0
               0.15  -0.01  0
               0.164286  -0.01  0
               0.178571  -0.01  0
               0.192857  -0.01  0
               0.00714286  0.01  0
               0.0214286  0.01  0
               0.0357143  0.01  0
               0.05  0.01  0
               0.0642857  0.01  0
               0.0785714  0.01  0
               0.0928571  0.01  0
               0.107143  0.01  0
               0.121429  0.01  0
               0.135714  0.01  0
               0.15  0.01  0
               0.164286  0.01  0
               0.178571  0.01  0
               0.192857  0.01  0
               0.2  -0.005  0
               0.2  0.005  0
            </DataArray>
         </Points>

         <Cells>
            <DataArray type="Int32" Name="connectivity" NumberOfComponents="1" format="ascii">

            </DataArray>
            <DataArray type="Int32" Name="offsets" NumberOfComponents="1" format="ascii">

            </DataArray>
            <DataArray type="UInt8"  Name="types" NumberOfComponents="1" format="ascii">

            </DataArray>
         </Cells>
         <PointData Scalars="Rank " Vectors="Force Displacement ">
            <DataArray type="UInt32" Name="Rank" NumberOfComponents="1" format="ascii">
               0 0 0 0 0 0 0 0 0 0 0 0 0 0 0 0 0 0 0 0 0 0 0 0 0 0 0 0 0 0 0 0
            </DataArray>
            <DataArray type="Float64" Name="Force" NumberOfComponents="3" format="ascii">
               2.08737 0.0171831 0.0  2.0974 -0.0305401 0.0  0.436119 0.153015 0.0  0.298631 0.0573479 0.0  0.217369 0.16535 0.0  0.191355 0.215897 0.0  0.177536 0.222096 0.0  0.173338 0.220024 0.0  0.173704 0.207102 0.0  0.176489 0.181068 0.0  0.180184 0.142363 0.0  0.184645 0.0946471 0.0  0.190372 0.0395794 0.0  0.197849 -0.0231652 0.0  0.208135 -0.0949799 0.0  0.211453 -0.166066 0.0  0.447522 -0.30043 0.0  0.313968 -0.187324 0.0  0.230947 -0.266408 0.0  0.198199 -0.296964 0.0  0.187267 -0.307561 0.0  0.182604 -0.304082 0.0  0.181908 -0.287643 0.0  0.183893 -0.25763 0.0  0.187115 -0.214503 0.0  0.191073 -0.160765 0.0  0.196199 -0.0971113 0.0  0.203247 -0.022766 0.0  0.212925 0.0645045 0.0  0.217135 0.154427 0.0  0.291219 -0.01889 0.0  0.311659 0.0184585 0.0
            </DataArray>
            <DataArray type="Float64" Name="Displacement" NumberOfComponents="3" format="ascii">
               -9.35514e-06 8.75187e-09 0.0  9.35514e-06 -8.75187e-09 0.0  -1.87228e-05 -1.3347e-05 0.0  -1.87478e-05 -4.00759e-05 0.0  -1.87728e-05 -6.68049e-05 0.0  -1.87978e-05 -9.35339e-05 0.0  -1.88228e-05 -0.000120263 0.0  -1.88478e-05 -0.000146992 0.0  -1.88728e-05 -0.000173721 0.0  -1.88978e-05 -0.00020045 0.0  -1.89228e-05 -0.000227179 0.0  -1.89478e-05 -0.000253908 0.0  -1.89728e-05 -0.000280637 0.0  -1.89978e-05 -0.000307366 0.0  -1.90228e-05 -0.000334095 0.0  -1.90478e-05 -0.000360823 0.0  1.86978e-05 -1.3382e-05 0.0  1.86728e-05 -4.01109e-05 0.0  1.86478e-05 -6.68399e-05 0.0  1.86228e-05 -9.35689e-05 0.0  1.85977e-05 -0.000120298 0.0  1.85727e-05 -0.000147027 0.0  1.85477e-05 -0.000173756 0.0  1.85227e-05 -0.000200485 0.0  1.84977e-05 -0.000227214 0.0  1.84727e-05 -0.000253943 0.0  1.84477e-05 -0.000280672 0.0  1.84227e-05 -0.000307401 0.0  1.83977e-05 -0.00033413 0.0  1.83727e-05 -0.000360858 0.0  -9.70521e-06 -0.000374197 0.0  9.00506e-06 -0.000374214 0.0
            </DataArray>
         </PointData>
      </Piece>
   </UnstructuredGrid>
</VTKFile>
