<?xml version="1.0"?>
<VTKFile type="UnstructuredGrid" version="0.1" byte_order="LittleEndian">
   <UnstructuredGrid>
      <Piece NumberOfPoints="32" NumberOfCells="0" >
         <Points>
            <DataArray type="Float64" Name="Position" NumberOfComponents="3" format="ascii">
               0  -0.005  0
               0  0.005  0
               0.00714286  -0.01  0
               0.0214286  -0.01  0
               0.0357143  -0.01  0
               0.05  -0.01  0
               0.0642857  -0.01  0
               0.0785714  -0.01  0
               0.0928571  -0.01  0
               0.107143  -0.01  0
               0.121429  -0.01  0
               0.135714  -0.01  0
               0.15  -0.01  0
               0.164286  -0.01  0
               0.178571  -0.01  0
               0.192857  -0.01  0
               0.00714286  0.01  0
               0.0214286  0.01  0
               0.0357143  0.01  0
               0.05  0.01  0
               0.0642857  0.01  0
               0.0785714  0.01  0
               0.0928571  0.01  0
               0.107143  0.01  0
               0.121429  0.01  0
               0.135714  0.01  0
               0.15  0.01  0
               0.164286  0.01  0
               0.178571  0.01  0
               0.192857  0.01  0
               0.2  -0.005  0
               0.2  0.005  0
            </DataArray>
         </Points>

         <Cells>
            <DataArray type="Int32" Name="connectivity" NumberOfComponents="1" format="ascii">

            </DataArray>
            <DataArray type="Int32" Name="offsets" NumberOfComponents="1" format="ascii">

            </DataArray>
            <DataArray type="UInt8"  Name="types" NumberOfComponents="1" format="ascii">

            </DataArray>
         </Cells>
         <PointData Scalars="Rank " Vectors="Force Displacement ">
            <DataArray type="UInt32" Name="Rank" NumberOfComponents="1" format="ascii">
               0 0 0 0 0 0 0 0 0 0 0 0 0 0 0 0 0 0 0 0 0 0 0 0 0 0 0 0 0 0 0 0
            </DataArray>
            <DataArray type="Float64" Name="Force" NumberOfComponents="3" format="ascii">
               2.11884 0.0094972 0.0  2.06128 -0.0346061 0.0  0.444998 0.457369 0.0  0.315689 0.351815 0.0  0.235269 0.423273 0.0  0.2079 0.441596 0.0  0.192804 0.424463 0.0  0.186053 0.403411 0.0  0.184877 0.375649 0.0  0.186935 0.336514 0.0  0.190487 0.286483 0.0  0.195034 0.225402 0.0  0.201001 0.153955 0.0  0.209473 0.0713611 0.0  0.22158 -0.0258231 0.0  0.227987 -0.131699 0.0  0.438038 0.0313503 0.0  0.300841 0.118656 0.0  0.21558 -0.0326275 0.0  0.192872 -0.109625 0.0  0.180202 -0.10993 0.0  0.173696 -0.112799 0.0  0.173525 -0.116377 0.0  0.175868 -0.101055 0.0  0.179283 -0.0717183 0.0  0.183192 -0.0322005 0.0  0.187866 0.0152778 0.0  0.19385 0.0701327 0.0  0.201612 0.13293 0.0  0.201631 0.189959 0.0  0.310122 -0.0235714 0.0  0.302387 0.0143718 0.0
            </DataArray>
            <DataArray type="Float64" Name="Displacement" NumberOfComponents="3" format="ascii">
               -7.59952e-05 5.77561e-07 0.0  7.59952e-05 -5.77561e-07 0.0  -0.000152816 -0.00010741 0.0  -0.000154466 -0.000324539 0.0  -0.000156116 -0.000541668 0.0  -0.000157766 -0.000758797 0.0  -0.000159416 -0.000975927 0.0  -0.000161066 -0.00119306 0.0  -0.000162717 -0.00141019 0.0  -0.000164367 -0.00162731 0.0  -0.000166017 -0.00184444 0.0  -0.000167667 -0.00206157 0.0  -0.000169317 -0.0022787 0.0  -0.000170967 -0.00249583 0.0  -0.000172618 -0.00271296 0.0  -0.000174268 -0.00293009 0.0  0.000151165 -0.00010972 0.0  0.000149515 -0.000326849 0.0  0.000147865 -0.000543978 0.0  0.000146215 -0.000761108 0.0  0.000144565 -0.000978237 0.0  0.000142915 -0.00119537 0.0  0.000141264 -0.0014125 0.0  0.000139614 -0.00162962 0.0  0.000137964 -0.00184675 0.0  0.000136314 -0.00206388 0.0  0.000134664 -0.00228101 0.0  0.000133013 -0.00249814 0.0  0.000131363 -0.00271527 0.0  0.000129713 -0.0029324 0.0  -9.90977e-05 -0.00303923 0.0  5.28928e-05 -0.00304039 0.0
            </DataArray>
         </PointData>
      </Piece>
   </UnstructuredGrid>
</VTKFile>
