<?xml version="1.0"?>
<VTKFile type="UnstructuredGrid" version="0.1" byte_order="LittleEndian">
   <UnstructuredGrid>
      <Piece NumberOfPoints="32" NumberOfCells="0" >
         <Points>
            <DataArray type="Float64" Name="Position" NumberOfComponents="3" format="ascii">
               0  -0.005  0
               0  0.005  0
               0.00714286  -0.01  0
               0.0214286  -0.01  0
               0.0357143  -0.01  0
               0.05  -0.01  0
               0.0642857  -0.01  0
               0.0785714  -0.01  0
               0.0928571  -0.01  0
               0.107143  -0.01  0
               0.121429  -0.01  0
               0.135714  -0.01  0
               0.15  -0.01  0
               0.164286  -0.01  0
               0.178571  -0.01  0
               0.192857  -0.01  0
               0.00714286  0.01  0
               0.0214286  0.01  0
               0.0357143  0.01  0
               0.05  0.01  0
               0.0642857  0.01  0
               0.0785714  0.01  0
               0.0928571  0.01  0
               0.107143  0.01  0
               0.121429  0.01  0
               0.135714  0.01  0
               0.15  0.01  0
               0.164286  0.01  0
               0.178571  0.01  0
               0.192857  0.01  0
               0.2  -0.005  0
               0.2  0.005  0
            </DataArray>
         </Points>

         <Cells>
            <DataArray type="Int32" Name="connectivity" NumberOfComponents="1" format="ascii">

            </DataArray>
            <DataArray type="Int32" Name="offsets" NumberOfComponents="1" format="ascii">

            </DataArray>
            <DataArray type="UInt8"  Name="types" NumberOfComponents="1" format="ascii">

            </DataArray>
         </Cells>
         <PointData Scalars="Rank " Vectors="Force Displacement ">
            <DataArray type="UInt32" Name="Rank" NumberOfComponents="1" format="ascii">
               0 0 0 0 0 0 0 0 0 0 0 0 0 0 0 0 0 0 0 0 0 0 0 0 0 0 0 0 0 0 0 0
            </DataArray>
            <DataArray type="Float64" Name="Force" NumberOfComponents="3" format="ascii">
               2.03271 0.0230381 0.0  2.12729 -0.0130515 0.0  0.416589 -0.26366 0.0  0.273873 -0.307275 0.0  0.187227 -0.103583 0.0  0.166597 0.016583 0.0  0.157847 0.0554388 0.0  0.156609 0.0776977 0.0  0.158459 0.0874899 0.0  0.1619 0.0806661 0.0  0.16652 0.0588608 0.0  0.171518 0.0260819 0.0  0.177213 -0.0155897 0.0  0.184256 -0.0658015 0.0  0.192965 -0.12518 0.0  0.194776 -0.180432 0.0  0.45901 -0.633882 0.0  0.343268 -0.507985 0.0  0.264284 -0.546828 0.0  0.23276 -0.533461 0.0  0.215288 -0.491168 0.0  0.206132 -0.449839 0.0  0.202246 -0.406463 0.0  0.20184 -0.355521 0.0  0.203554 -0.295846 0.0  0.206727 -0.227759 0.0  0.211549 -0.151078 0.0  0.218588 -0.0640913 0.0  0.22983 0.0360122 0.0  0.234796 0.143971 0.0  0.286323 -0.00919898 0.0  0.312043 0.0288892 0.0
            </DataArray>
            <DataArray type="Float64" Name="Displacement" NumberOfComponents="3" format="ascii">
               8.13427e-05 6.61707e-07 0.0  -8.13427e-05 -6.61707e-07 0.0  0.00016174 0.000117527 0.0  0.00015985 0.000349935 0.0  0.000157959 0.000582343 0.0  0.000156068 0.00081475 0.0  0.000154178 0.00104716 0.0  0.000152287 0.00127957 0.0  0.000150397 0.00151197 0.0  0.000148506 0.00174438 0.0  0.000146615 0.00197679 0.0  0.000144725 0.0022092 0.0  0.000142834 0.0024416 0.0  0.000140944 0.00267401 0.0  0.000139053 0.00290642 0.0  0.000137162 0.00313883 0.0  -0.000163631 0.00011488 0.0  -0.000165521 0.000347288 0.0  -0.000167412 0.000579696 0.0  -0.000169302 0.000812104 0.0  -0.000171193 0.00104451 0.0  -0.000173084 0.00127692 0.0  -0.000174974 0.00150933 0.0  -0.000176865 0.00174173 0.0  -0.000178755 0.00197414 0.0  -0.000180646 0.00220655 0.0  -0.000182537 0.00243896 0.0  -0.000184427 0.00267137 0.0  -0.000186318 0.00290377 0.0  -0.000188208 0.00313618 0.0  5.48744e-05 0.00325437 0.0  -0.000107811 0.00325305 0.0
            </DataArray>
         </PointData>
      </Piece>
   </UnstructuredGrid>
</VTKFile>
